                               Psi4 1.3.2 release

  ==> Input File <==

--------------------------------------------------------------------------
memory 1024 mb

molecule mol {
0 1
N 0.00000000 0.00000000 0.00000000
O 1.48000000 -0.00000000 0.00000000
H 2.00500000 -0.90932667 -0.00000000
O -0.62900000 1.08945996 0.00000000

}

set {
  scf_type DIRECT
  basis 6-31G(d_p)
  reference uks
  geom_maxiter 50
  print 3
}

optimize('b3lyp')
scf_e, wfn=frequencies('b3lyp', return_wfn=True, dertype=1)
wfn.hessian().print_out()
--------------------------------------------------------------------------

    Molecular point group: cs
  Charge       = 0
  Multiplicity = 1
  @UKS Final Energy:  -205.66478761010725
    Total Energy =                       -205.6647876101072541
    Molecular point group: cs
  @UKS Final Energy:  -205.69562033664235
    Total Energy =                       -205.6956203366423495
  @UKS Final Energy:  -205.69996064834743
    Total Energy =                       -205.6999606483474281
  @UKS Final Energy:  -205.70028942269533
    Total Energy =                       -205.7002894226953345
  @UKS Final Energy:  -205.70029589155686
    Total Energy =                       -205.7002958915568627
  @UKS Final Energy:  -205.70029677041396
    Total Energy =                       -205.7002967704139564
  **** Optimization is complete! (in 6 steps) ****
    Final optimized geometry and variables:
  @UKS Final Energy:  -205.70029677041407
    Total Energy =                       -205.7002967704140701
  @UKS Final Energy:  -205.70029677041407
    Total Energy =                       -205.7002967704140701
  @UKS Final Energy:  -205.70029580164527
    Total Energy =                       -205.7002958016452681
  @UKS Final Energy:  -205.70029685465633
    Total Energy =                       -205.7002968546563295
  @UKS Final Energy:  -205.70029571234107
    Total Energy =                       -205.7002957123410738
  @UKS Final Energy:  -205.70029536637659
    Total Energy =                       -205.7002953663765936
  @UKS Final Energy:  -205.70029632343812
    Total Energy =                       -205.7002963234381241
  @UKS Final Energy:  -205.70029622893287
    Total Energy =                       -205.7002962289328707
  @UKS Final Energy:  -205.70029385457616
    Total Energy =                       -205.7002938545761594
  @UKS Final Energy:  -205.70029389478162
    Total Energy =                       -205.7002938947816233
  @UKS Final Energy:  -205.70029224107327
    Total Energy =                       -205.7002922410732708
  @UKS Final Energy:  -205.70029235146450
    Total Energy =                       -205.7002923514644976
    Molecular point group: c1
  Charge       = 0
  Multiplicity = 1

    Orbital Energies [Eh]
    ---------------------

    Alpha Occupied:

       1A    -19.234745     2A    -19.218413     3A    -14.523754
       4A     -1.227166     5A     -1.056512     6A     -0.686462
       7A     -0.565685     8A     -0.506494     9A     -0.503800
      10A     -0.415528    11A     -0.348527    12A     -0.280631

    Alpha Virtual:

      13A     -0.084175    14A      0.060917    15A      0.119885
      16A      0.322903    17A      0.617119    18A      0.634623
      19A      0.647258    20A      0.695085    21A      0.751933
      22A      0.816844    23A      0.878113    24A      0.893350
      25A      0.918994    26A      0.930464    27A      1.053079
      28A      1.286970    29A      1.360655    30A      1.372565
      31A      1.446781    32A      1.451224    33A      1.598186
      34A      1.759743    35A      1.794045    36A      1.888113
      37A      2.055159    38A      2.252187    39A      2.321478
      40A      2.391630    41A      2.458973    42A      2.522440
      43A      2.639871    44A      2.704995    45A      2.828229
      46A      2.964275    47A      3.365169    48A      3.426650
      49A      3.637485    50A      3.766807

    Beta Occupied:

       1A    -19.234745     2A    -19.218413     3A    -14.523754
       4A     -1.227166     5A     -1.056512     6A     -0.686462
       7A     -0.565685     8A     -0.506494     9A     -0.503800
      10A     -0.415528    11A     -0.348527    12A     -0.280631

    Beta Virtual:

      13A     -0.084175    14A      0.060917    15A      0.119885
      16A      0.322903    17A      0.617119    18A      0.634623
      19A      0.647258    20A      0.695085    21A      0.751933
      22A      0.816844    23A      0.878113    24A      0.893350
      25A      0.918994    26A      0.930464    27A      1.053079
      28A      1.286970    29A      1.360655    30A      1.372565
      31A      1.446781    32A      1.451224    33A      1.598186
      34A      1.759743    35A      1.794045    36A      1.888113
      37A      2.055159    38A      2.252187    39A      2.321478
      40A      2.391630    41A      2.458973    42A      2.522440
      43A      2.639871    44A      2.704995    45A      2.828229
      46A      2.964275    47A      3.365169    48A      3.426650
      49A      3.637485    50A      3.766807

    Final Occupation by Irrep:
              A
    DOCC [    12 ]
    SOCC [     0 ]

  @UKS Final Energy:  -205.70029660362010

   => Energetics <=

    Nuclear Repulsion Energy =             69.4504254594017851
    One-Electron Energy =                -419.0436712317481920
    Two-Electron Energy =                 163.5551487557667372
    DFT Exchange-Correlation Energy =     -19.6621995870404440
    Empirical Dispersion Energy =           0.0000000000000000
    VV10 Nonlocal Energy =                  0.0000000000000000
    Total Energy =                       -205.7002966036201030

  UHF NO Occupations:
  HONO-2 :   10  A 2.0000000
  HONO-1 :   11  A 2.0000000
  HONO-0 :   12  A 2.0000000
  LUNO+0 :   13  A 0.0000000
  LUNO+1 :   14  A 0.0000000
  LUNO+2 :   15  A 0.0000000
  LUNO+3 :   16  A 0.0000000

Computation Completed

Properties will be evaluated at   0.000000,   0.000000,   0.000000 [a0]

Properties computed using the SCF density matrix

  Nuclear Dipole Moment: [e a0]
     X:     1.3077      Y:    -1.0820      Z:     0.0023

  Electronic Dipole Moment: [e a0]
     X:    -0.8866      Y:     0.3477      Z:    -0.0006

  Dipole Moment: [e a0]
     X:     0.4210      Y:    -0.7343      Z:     0.0016     Total:     0.8465

  Dipole Moment: [D]
     X:     1.0701      Y:    -1.8665      Z:     0.0042     Total:     2.1515

*** tstop() called on FACC02D75Y4MD6T.tld at Sun Sep 20 10:44:14 2020
Module time:
	user time   =       3.97 seconds =       0.07 minutes
	system time =       0.09 seconds =       0.00 minutes
	total time  =          4 seconds =       0.07 minutes
Total time:
	user time   =      93.19 seconds =       1.55 minutes
	system time =       1.93 seconds =       0.03 minutes
	total time  =         95 seconds =       1.58 minutes

*** tstart() called on FACC02D75Y4MD6T.tld
*** at Sun Sep 20 10:44:14 2020

         ------------------------------------------------------------
                                   SCF GRAD
                          Rob Parrish, Justin Turney,
                       Andy Simmonett, and Alex Sokolov
         ------------------------------------------------------------

  ==> Geometry <==

    Molecular point group: c1
    Full point group: C1

    Geometry (in Angstrom), charge = 0, multiplicity = 1:

       Center              X                  Y                   Z               Mass
    ------------   -----------------  -----------------  -----------------  -----------------
         N           -0.337893532792    -0.394951698502    -0.000169769397    14.003074004430
         O            1.080653845020    -0.236568407661    -0.000137803621    15.994914619570
         H            1.392763954413    -1.157551960822     0.002442488245     1.007825032230
         O           -0.872594855822     0.655273218772     0.000132532736    15.994914619570

           N
              BASIS           6-31G(D_P)           be17c05ec1461ad3097843c20da1040adf86ba79
              DF_BASIS_SCF    (6-31G(D_P) AUX)     8eb73939244d0ff71e080d82475ea73ba87737d3
           O
              BASIS           6-31G(D_P)           ec2d227169b1af6c6a69bc8715bab79dbd7bb644
              DF_BASIS_SCF    (6-31G(D_P) AUX)     b57462463db1b385e39e4428a46364991bcd7673
           H
              BASIS           6-31G(D_P)           902186d0f3205710946c2c15d2c68458d6f6cc2a
              DF_BASIS_SCF    (6-31G(D_P) AUX)     1164366b470d7a66fddaf681ef9d1c28421b3e4a
           O
              BASIS           6-31G(D_P)           ec2d227169b1af6c6a69bc8715bab79dbd7bb644
              DF_BASIS_SCF    (6-31G(D_P) AUX)     b57462463db1b385e39e4428a46364991bcd7673

  Nuclear repulsion =   69.450425459401785

  ==> Basis Set <==

  -AO BASIS SET INFORMATION:
    Name                   = 6-31G(D_P)
    Blend                  = 6-31G(D_P)
    Total number of shells = 21
    Number of primitives   = 50
    Number of AO           = 50
    Number of SO           = 50
    Maximum AM             = 2
    Spherical Harmonics    = FALSE

  -Contraction Scheme:
    Atom   Type   All Primitives // Shells:
   ------ ------ --------------------------
       1     N     10s 4p 1d // 3s 2p 1d
       2     O     10s 4p 1d // 3s 2p 1d
       3     H     4s 1p // 2s 1p
       4     O     10s 4p 1d // 3s 2p 1d

  ==> AO Basis Functions <==

    [ 6-31G(D_P) ]
    cartesian
    ****
    N   1
    S   6 1.00
                      4173.51100000           0.00183480
                       627.45790000           0.01399500
                       142.90210000           0.06858700
                        40.23433000           0.23224100
                        12.82021000           0.46907000
                         4.39043700           0.36045500
    S   3 1.00
                        11.62635800          -0.11496100
                         2.71628000          -0.16911800
                         0.77221800           1.14585200
    P   3 1.00
                        11.62635800           0.06758000
                         2.71628000           0.32390700
                         0.77221800           0.74089500
    S   1 1.00
                         0.21203130           1.00000000
    P   1 1.00
                         0.21203130           1.00000000
    D   1 1.00
                         0.80000000           1.00000000
    ****
    O   2
    S   6 1.00
                      5484.67170000           0.00183110
                       825.23495000           0.01395010
                       188.04696000           0.06844510
                        52.96450000           0.23271430
                        16.89757000           0.47019300
                         5.79963530           0.35852090
    S   3 1.00
                        15.53961600          -0.11077750
                         3.59993360          -0.14802630
                         1.01376180           1.13076700
    P   3 1.00
                        15.53961600           0.07087430
                         3.59993360           0.33975280
                         1.01376180           0.72715860
    S   1 1.00
                         0.27000580           1.00000000
    P   1 1.00
                         0.27000580           1.00000000
    D   1 1.00
                         0.80000000           1.00000000
    ****
    H   3
    S   3 1.00
                        18.73113700           0.03349460
                         2.82539370           0.23472695
                         0.64012170           0.81375733
    S   1 1.00
                         0.16127780           1.00000000
    P   1 1.00
                         1.10000000           1.00000000
    ****
    O   4
    S   6 1.00
                      5484.67170000           0.00183110
                       825.23495000           0.01395010
                       188.04696000           0.06844510
                        52.96450000           0.23271430
                        16.89757000           0.47019300
                         5.79963530           0.35852090
    S   3 1.00
                        15.53961600          -0.11077750
                         3.59993360          -0.14802630
                         1.01376180           1.13076700
    P   3 1.00
                        15.53961600           0.07087430
                         3.59993360           0.33975280
                         1.01376180           0.72715860
    S   1 1.00
                         0.27000580           1.00000000
    P   1 1.00
                         0.27000580           1.00000000
    D   1 1.00
                         0.80000000           1.00000000
    ****

  ==> DirectJKGrad: Integral-Direct SCF Gradients <==

    Gradient:                    1
    J tasked:                  Yes
    K tasked:                  Yes
    wK tasked:                  No
    Integrals threads:           1
    Schwarz Cutoff:          0E+00

  ==> DFT Potential <==

   => Composite Functional: B3LYP <=

    B3LYP Hyb-GGA Exchange-Correlation Functional

    P. J. Stephens, F. J. Devlin, C. F. Chabalowski, and M. J. Frisch, J. Phys. Chem. 98, 11623 (1994)

    Deriv               =              1
    GGA                 =           TRUE
    Meta                =          FALSE

    Exchange Hybrid     =           TRUE
    MP2 Hybrid          =          FALSE

   => Exchange Functionals <=

    0.0800   Slater exchange
    0.7200         Becke 88

   => Exact (HF) Exchange <=

    0.2000               HF

   => Correlation Functionals <=

    0.1900   Vosko, Wilk & Nusair (VWN5_RPA)
    0.8100   Lee, Yang & Parr

   => XC_HYB_GGA_XC_B3LYP Functional <=

    B3LYP
    P. J. Stephens, F. J. Devlin, C. F. Chabalowski, and M. J. Frisch, J. Phys. Chem. 98, 11623 (1994)
    GGA   =           TRUE
    Meta  =          FALSE
    LRC   =          FALSE
    Alpha =   1.000000E+00
    Omega =   0.000000E+00

    > Parameters <

   => Molecular Quadrature <=

    Radial Scheme          =       TREUTLER
    Pruning Scheme         =           FLAT
    Nuclear Scheme         =       TREUTLER

    BS radius alpha        =              1
    Pruning alpha          =              1
    Radial Points          =             75
    Spherical Points       =            302
    Total Points           =          86324
    Total Blocks           =            711
    Max Points             =            254
    Max Functions          =             50

  -Nuclear Gradient:
     Atom            X                  Y                   Z
    ------   -----------------  -----------------  -----------------
       1        3.028213047210    10.694909484509     0.003825601138
       2      -10.425094230175    -1.483260177115     0.006603085623
       3       -1.469647434631     2.630945617785    -0.007254919523
       4        8.866528617597   -11.842594925179    -0.003173767239

  -Core Hamiltonian Gradient:
     Atom            X                  Y                   Z
    ------   -----------------  -----------------  -----------------
       1       -4.085512826873   -24.556943613820    -0.009049212295
       2       19.705943175339     4.689191912374    -0.018516268158
       3        3.287826506720    -6.812018785103     0.019780993619
       4      -18.908256855189    26.679770486546     0.007784486833

  -Overlap Gradient:
     Atom            X                  Y                   Z
    ------   -----------------  -----------------  -----------------
       1       -0.043701812879     0.490721829584     0.000131888911
       2       -0.098623657792    -0.296056369130     0.000754475260
       3       -0.080566805497     0.256048615829    -0.000741250219
       4        0.222892276168    -0.450714076282    -0.000145113953

  -Coulomb Gradient:
     Atom            X                  Y                   Z
    ------   -----------------  -----------------  -----------------
       1        0.987235971892    14.006895560990     0.005265552816
       2       -9.255052580633    -3.275392630067     0.012119270060
       3       -1.860692554977     4.272616340366    -0.012762459559
       4       10.128509163717   -15.004119271289    -0.004622363317

  -Exchange Gradient:
     Atom            X                  Y                   Z
    ------   -----------------  -----------------  -----------------
       1        0.026688213229    -0.167735576769    -0.000062276317
       2        0.023177578051     0.094611803045    -0.000263951154
       3        0.031910431174    -0.089327568316     0.000269915065
       4       -0.081776222454     0.162451342041     0.000056312406

  -XC Gradient:
     Atom            X                  Y                   Z
    ------   -----------------  -----------------  -----------------
       1        0.086740600386    -0.467770352544    -0.000171858357
       2        0.049884275105     0.270910599423    -0.000751338104
       3        0.091178627331    -0.258256488007     0.000769944030
       4       -0.227794737212     0.455131318903     0.000154317740

  -Total Gradient:
     Atom            X                  Y                   Z
    ------   -----------------  -----------------  -----------------
       1       -0.000336807035     0.000077331949    -0.000060304103
       2        0.000234559896     0.000005138529    -0.000054726471
       3        0.000008770119     0.000007732555     0.000062223413
       4        0.000102242625    -0.000075125261     0.000053872471

*** tstop() called on FACC02D75Y4MD6T.tld at Sun Sep 20 10:44:15 2020
Module time:
	user time   =       0.81 seconds =       0.01 minutes
	system time =       0.01 seconds =       0.00 minutes
	total time  =          1 seconds =       0.02 minutes
Total time:
	user time   =      94.00 seconds =       1.57 minutes
	system time =       1.94 seconds =       0.03 minutes
	total time  =         96 seconds =       1.60 minutes

         ----------------------------------------------------------
                                   FINDIF
                     R. A. King and Jonathon Misiewicz
         ---------------------------------------------------------

  Computing second-derivative from gradients using projected,
  symmetry-adapted, cartesian coordinates.

  12 gradients passed in, including the reference geometry.
  Generating complete list of displacements from unique ones.

  Vibration                       7                   8                   9
  Freq [cm^-1]                 594.4243            630.5583            860.9294
  Irrep                          App                  Ap                  Ap
  Reduced mass [u]              1.1608              9.9854              6.0211
  Force const [mDyne/A]         0.2417              2.3392              2.6294

  Vibration                       10                  11                  12
  Freq [cm^-1]                1305.5141           1793.0173           3755.7094
  Irrep                           Ap                  Ap                  Ap
  Reduced mass [u]              1.2760             11.1831              1.0668
  Force const [mDyne/A]         1.2814             21.1827              8.8661

  ==> Thermochemistry Components <==

  Entropy, S
    Electronic S            0.000 [cal/(mol K)]        0.000 [J/(mol K)]       0.00000000 [mEh/K] (multiplicity = 1)
    Translational S        37.467 [cal/(mol K)]      156.764 [J/(mol K)]       0.05970820 [mEh/K] (mol. weight = 47.0007 [u], P = 101325.00 [Pa])
    Rotational S           20.754 [cal/(mol K)]       86.835 [J/(mol K)]       0.03307373 [mEh/K] (symmetry no. = 1)
    Vibrational S           1.052 [cal/(mol K)]        4.403 [J/(mol K)]       0.00167713 [mEh/K]
  Total S                  59.274 [cal/(mol K)]      248.002 [J/(mol K)]       0.09445907 [mEh/K]
  Correction S              0.000 [cal/(mol K)]        0.000 [J/(mol K)]       0.00000000 [mEh/K]

  Constant volume heat capacity, Cv
    Electronic Cv           0.000 [cal/(mol K)]        0.000 [J/(mol K)]       0.00000000 [mEh/K]
    Translational Cv        2.981 [cal/(mol K)]       12.472 [J/(mol K)]       0.00475022 [mEh/K]
    Rotational Cv           2.981 [cal/(mol K)]       12.472 [J/(mol K)]       0.00475022 [mEh/K]
    Vibrational Cv          2.738 [cal/(mol K)]       11.457 [J/(mol K)]       0.00436378 [mEh/K]
  Total Cv                  8.700 [cal/(mol K)]       36.400 [J/(mol K)]       0.01386421 [mEh/K]
  Correction Cv             0.000 [cal/(mol K)]        0.000 [J/(mol K)]       0.00000000 [mEh/K]

  Constant pressure heat capacity, Cp
    Electronic Cp           0.000 [cal/(mol K)]        0.000 [J/(mol K)]       0.00000000 [mEh/K]
    Translational Cp        4.968 [cal/(mol K)]       20.786 [J/(mol K)]       0.00791703 [mEh/K]
    Rotational Cp           2.981 [cal/(mol K)]       12.472 [J/(mol K)]       0.00475022 [mEh/K]
    Vibrational Cp          2.738 [cal/(mol K)]       11.457 [J/(mol K)]       0.00436378 [mEh/K]
  Total Cp                 10.687 [cal/(mol K)]       44.715 [J/(mol K)]       0.01703102 [mEh/K]
  Correction Cp             0.000 [cal/(mol K)]        0.000 [J/(mol K)]       0.00000000 [mEh/K]

  ==> Thermochemistry Energy Analysis <==

  Raw electronic energy, E0
  Total E0, Electronic energy at well bottom at 0 [K]                 -205.70029677 [Eh]

  Zero-point energy, ZPE_vib = Sum_i nu_i / 2
    Electronic ZPE          0.000 [kcal/mol]        0.000 [kJ/mol]       0.00000000 [Eh]
    Translational ZPE       0.000 [kcal/mol]        0.000 [kJ/mol]       0.00000000 [Eh]
    Rotational ZPE          0.000 [kcal/mol]        0.000 [kJ/mol]       0.00000000 [Eh]
    Vibrational ZPE        12.781 [kcal/mol]       53.474 [kJ/mol]       0.02036717 [Eh]        4470.076 [cm^-1]
  Correction ZPE           12.781 [kcal/mol]       53.474 [kJ/mol]       0.02036717 [Eh]        4470.076 [cm^-1]
  Total ZPE, Electronic energy at 0 [K]                               -205.67992960 [Eh]

  Thermal Energy, E (includes ZPE)
    Electronic E            0.000 [kcal/mol]        0.000 [kJ/mol]       0.00000000 [Eh]
    Translational E         0.889 [kcal/mol]        3.718 [kJ/mol]       0.00141628 [Eh]
    Rotational E            0.889 [kcal/mol]        3.718 [kJ/mol]       0.00141628 [Eh]
    Vibrational E          13.020 [kcal/mol]       54.477 [kJ/mol]       0.02074903 [Eh]
  Correction E             14.798 [kcal/mol]       61.913 [kJ/mol]       0.02358158 [Eh]
  Total E, Electronic energy at  298.15 [K]                           -205.67671519 [Eh]

  Enthalpy, H_trans = E_trans + k_B * T
    Electronic H            0.000 [kcal/mol]        0.000 [kJ/mol]       0.00000000 [Eh]
    Translational H         1.481 [kcal/mol]        6.197 [kJ/mol]       0.00236046 [Eh]
    Rotational H            0.889 [kcal/mol]        3.718 [kJ/mol]       0.00141628 [Eh]
    Vibrational H          13.020 [kcal/mol]       54.477 [kJ/mol]       0.02074903 [Eh]
  Correction H             15.390 [kcal/mol]       64.392 [kJ/mol]       0.02452577 [Eh]
  Total H, Enthalpy at  298.15 [K]                                    -205.67577100 [Eh]

  Gibbs free energy, G = H - T * S
    Electronic G            0.000 [kcal/mol]        0.000 [kJ/mol]       0.00000000 [Eh]
    Translational G        -9.690 [kcal/mol]      -40.542 [kJ/mol]      -0.01544154 [Eh]
    Rotational G           -5.299 [kcal/mol]      -22.171 [kJ/mol]      -0.00844466 [Eh]
    Vibrational G          12.706 [kcal/mol]       53.164 [kJ/mol]       0.02024899 [Eh]
  Correction G             -2.282 [kcal/mol]       -9.549 [kJ/mol]      -0.00363721 [Eh]
  Total G, Free enthalpy at  298.15 [K]                               -205.70393398 [Eh]

*** Psi4 exiting successfully. Buy a developer a beer!
