                               Psi4 1.3.2 release

  ==> Input File <==

--------------------------------------------------------------------------
memory 1024 mb

molecule mol {
0 1
N 0.00000000 0.00000000 0.00000000
O 1.48000000 0.00000000 0.00000000
H 1.83000000 -0.98994949 0.00000000
H -0.35666667 1.00880567 0.00000000
H -0.35666667 -0.50440284 -0.87365134

}

set {
  scf_type DIRECT
  basis 6-31G(d_p)
  reference uks
  geom_maxiter 50
  print 3
}

optimize('b3lyp')
scf_e, wfn=frequencies('b3lyp', return_wfn=True, dertype=1)
wfn.hessian().print_out()
--------------------------------------------------------------------------

    Molecular point group: c1
  Charge       = 0
  Multiplicity = 1
  @UKS Final Energy:  -131.69290384016344
    Total Energy =                       -131.6929038401634386
    Molecular point group: c1
  @UKS Final Energy:  -131.70930867624361
    Total Energy =                       -131.7093086762436087
  @UKS Final Energy:  -131.71331266387261
    Total Energy =                       -131.7133126638726139
  @UKS Final Energy:  -131.71157626150088
    Total Energy =                       -131.7115762615008805
  @UKS Final Energy:  -131.71562606494859
    Total Energy =                       -131.7156260649485944
  @UKS Final Energy:  -131.71572313671089
    Total Energy =                       -131.7157231367108920
  @UKS Final Energy:  -131.71577194190942
    Total Energy =                       -131.7157719419094235
  @UKS Final Energy:  -131.71577604178435
    Total Energy =                       -131.7157760417843519
  **** Optimization is complete! (in 8 steps) ****
    Final optimized geometry and variables:
  @UKS Final Energy:  -131.71577604178438
    Total Energy =                       -131.7157760417843804
  @UKS Final Energy:  -131.71577604178435
    Total Energy =                       -131.7157760417843519
  @UKS Final Energy:  -131.71577503506168
    Total Energy =                       -131.7157750350616823
  @UKS Final Energy:  -131.71577590147592
    Total Energy =                       -131.7157759014759222
  @UKS Final Energy:  -131.71577365763591
    Total Energy =                       -131.7157736576359071
  @UKS Final Energy:  -131.71577343388327
    Total Energy =                       -131.7157734338832711
  @UKS Final Energy:  -131.71577314233906
    Total Energy =                       -131.7157731423390601
  @UKS Final Energy:  -131.71577359794261
    Total Energy =                       -131.7157735979426150
  @UKS Final Energy:  -131.71577488428602
    Total Energy =                       -131.7157748842860201
  @UKS Final Energy:  -131.71577490551539
    Total Energy =                       -131.7157749055153886
  @UKS Final Energy:  -131.71577261543953
    Total Energy =                       -131.7157726154395334
  @UKS Final Energy:  -131.71577386929150
    Total Energy =                       -131.7157738692914961
  @UKS Final Energy:  -131.71577407732758
    Total Energy =                       -131.7157740773275805
  @UKS Final Energy:  -131.71577348428153
    Total Energy =                       -131.7157734842815273
  @UKS Final Energy:  -131.71577204478319
    Total Energy =                       -131.7157720447831935
  @UKS Final Energy:  -131.71577286190742
    Total Energy =                       -131.7157728619074248
  @UKS Final Energy:  -131.71577286422090
    Total Energy =                       -131.7157728642208951
  @UKS Final Energy:  -131.71577360612767
    Total Energy =                       -131.7157736061276694
  @UKS Final Energy:  -131.71577136638206
    Total Energy =                       -131.7157713663820573
    Molecular point group: c1
  Charge       = 0
  Multiplicity = 1

    Orbital Energies [Eh]
    ---------------------

    Alpha Occupied:

       1A    -19.163595     2A    -14.366563     3A     -1.041698
       4A     -0.797613     5A     -0.491993     6A     -0.484075
       7A     -0.425432     8A     -0.280368     9A     -0.254048

    Alpha Virtual:

      10A      0.082258    11A      0.084168    12A      0.154858
      13A      0.155822    14A      0.638464    15A      0.709078
      16A      0.709982    17A      0.792014    18A      0.815439
      19A      0.847107    20A      0.940340    21A      0.948092
      22A      1.007315    23A      1.192079    24A      1.307145
      25A      1.371146    26A      1.377807    27A      1.607063
      28A      1.826322    29A      2.001639    30A      2.015153
      31A      2.088765    32A      2.229331    33A      2.290576
      34A      2.358902    35A      2.523250    36A      2.658743
      37A      2.741586    38A      2.744000    39A      2.848190
      40A      2.943333    41A      3.243167    42A      3.420603
      43A      3.433524    44A      3.687709    45A      3.935485

    Beta Occupied:

       1A    -19.163595     2A    -14.366563     3A     -1.041698
       4A     -0.797613     5A     -0.491993     6A     -0.484075
       7A     -0.425432     8A     -0.280368     9A     -0.254048

    Beta Virtual:

      10A      0.082258    11A      0.084168    12A      0.154858
      13A      0.155822    14A      0.638464    15A      0.709078
      16A      0.709982    17A      0.792014    18A      0.815439
      19A      0.847107    20A      0.940340    21A      0.948092
      22A      1.007315    23A      1.192079    24A      1.307145
      25A      1.371146    26A      1.377807    27A      1.607063
      28A      1.826322    29A      2.001639    30A      2.015153
      31A      2.088765    32A      2.229331    33A      2.290576
      34A      2.358902    35A      2.523250    36A      2.658743
      37A      2.741586    38A      2.744000    39A      2.848190
      40A      2.943333    41A      3.243167    42A      3.420603
      43A      3.433524    44A      3.687709    45A      3.935485

    Final Occupation by Irrep:
              A
    DOCC [     9 ]
    SOCC [     0 ]

  @UKS Final Energy:  -131.71577248034396

   => Energetics <=

    Nuclear Repulsion Energy =             39.0958825380894837
    One-Electron Energy =                -257.3725153831442185
    Two-Electron Energy =                  99.9823429794112997
    DFT Exchange-Correlation Energy =     -13.4214826147005262
    Empirical Dispersion Energy =           0.0000000000000000
    VV10 Nonlocal Energy =                  0.0000000000000000
    Total Energy =                       -131.7157724803439578

  UHF NO Occupations:
  HONO-2 :    7  A 2.0000000
  HONO-1 :    8  A 2.0000000
  HONO-0 :    9  A 2.0000000
  LUNO+0 :   10  A 0.0000000
  LUNO+1 :   11  A 0.0000000
  LUNO+2 :   12  A 0.0000000
  LUNO+3 :   13  A 0.0000000

Computation Completed

Properties will be evaluated at   0.000000,   0.000000,   0.000000 [a0]

Properties computed using the SCF density matrix

  Nuclear Dipole Moment: [e a0]
     X:    -0.9754      Y:     0.1385      Z:     0.0078

  Electronic Dipole Moment: [e a0]
     X:     0.7495      Y:    -0.0935      Z:    -0.0187

  Dipole Moment: [e a0]
     X:    -0.2259      Y:     0.0450      Z:    -0.0109     Total:     0.2306

  Dipole Moment: [D]
     X:    -0.5741      Y:     0.1145      Z:    -0.0277     Total:     0.5861

*** tstop() called on FACC02D75Y4MD6T.tld at Sun Sep 20 10:32:51 2020
Module time:
	user time   =       3.40 seconds =       0.06 minutes
	system time =       0.07 seconds =       0.00 minutes
	total time  =          4 seconds =       0.07 minutes
Total time:
	user time   =     114.67 seconds =       1.91 minutes
	system time =       2.45 seconds =       0.04 minutes
	total time  =        118 seconds =       1.97 minutes

*** tstart() called on FACC02D75Y4MD6T.tld
*** at Sun Sep 20 10:32:51 2020

         ------------------------------------------------------------
                                   SCF GRAD
                          Rob Parrish, Justin Turney,
                       Andy Simmonett, and Alex Sokolov
         ------------------------------------------------------------

  ==> Geometry <==

    Molecular point group: c1
    Full point group: C1

    Geometry (in Angstrom), charge = 0, multiplicity = 1:

       Center              X                  Y                   Z               Mass
    ------------   -----------------  -----------------  -----------------  -----------------
         N           -0.730110978973     0.005460393755     0.103764451472    14.003074004430
         O            0.705118569150    -0.014095988605    -0.091414186626    15.994914619570
         H            0.981184669069    -0.688533753197     0.543313820563     1.007825032230
         H           -0.928752169749     0.989289135750     0.303198541430     1.007825032230
         H           -1.098758207160    -0.152910437647    -0.837442516715     1.007825032230

           N
              BASIS           6-31G(D_P)           be17c05ec1461ad3097843c20da1040adf86ba79
              DF_BASIS_SCF    (6-31G(D_P) AUX)     8eb73939244d0ff71e080d82475ea73ba87737d3
           O
              BASIS           6-31G(D_P)           ec2d227169b1af6c6a69bc8715bab79dbd7bb644
              DF_BASIS_SCF    (6-31G(D_P) AUX)     b57462463db1b385e39e4428a46364991bcd7673
           H
              BASIS           6-31G(D_P)           902186d0f3205710946c2c15d2c68458d6f6cc2a
              DF_BASIS_SCF    (6-31G(D_P) AUX)     1164366b470d7a66fddaf681ef9d1c28421b3e4a
           H
              BASIS           6-31G(D_P)           902186d0f3205710946c2c15d2c68458d6f6cc2a
              DF_BASIS_SCF    (6-31G(D_P) AUX)     1164366b470d7a66fddaf681ef9d1c28421b3e4a
           H
              BASIS           6-31G(D_P)           902186d0f3205710946c2c15d2c68458d6f6cc2a
              DF_BASIS_SCF    (6-31G(D_P) AUX)     1164366b470d7a66fddaf681ef9d1c28421b3e4a

  Nuclear repulsion =   39.095882538089484

  ==> Basis Set <==

  -AO BASIS SET INFORMATION:
    Name                   = 6-31G(D_P)
    Blend                  = 6-31G(D_P)
    Total number of shells = 21
    Number of primitives   = 45
    Number of AO           = 45
    Number of SO           = 45
    Maximum AM             = 2
    Spherical Harmonics    = FALSE

  -Contraction Scheme:
    Atom   Type   All Primitives // Shells:
   ------ ------ --------------------------
       1     N     10s 4p 1d // 3s 2p 1d
       2     O     10s 4p 1d // 3s 2p 1d
       3     H     4s 1p // 2s 1p
       4     H     4s 1p // 2s 1p
       5     H     4s 1p // 2s 1p

  ==> AO Basis Functions <==

    [ 6-31G(D_P) ]
    cartesian
    ****
    N   1
    S   6 1.00
                      4173.51100000           0.00183480
                       627.45790000           0.01399500
                       142.90210000           0.06858700
                        40.23433000           0.23224100
                        12.82021000           0.46907000
                         4.39043700           0.36045500
    S   3 1.00
                        11.62635800          -0.11496100
                         2.71628000          -0.16911800
                         0.77221800           1.14585200
    P   3 1.00
                        11.62635800           0.06758000
                         2.71628000           0.32390700
                         0.77221800           0.74089500
    S   1 1.00
                         0.21203130           1.00000000
    P   1 1.00
                         0.21203130           1.00000000
    D   1 1.00
                         0.80000000           1.00000000
    ****
    O   2
    S   6 1.00
                      5484.67170000           0.00183110
                       825.23495000           0.01395010
                       188.04696000           0.06844510
                        52.96450000           0.23271430
                        16.89757000           0.47019300
                         5.79963530           0.35852090
    S   3 1.00
                        15.53961600          -0.11077750
                         3.59993360          -0.14802630
                         1.01376180           1.13076700
    P   3 1.00
                        15.53961600           0.07087430
                         3.59993360           0.33975280
                         1.01376180           0.72715860
    S   1 1.00
                         0.27000580           1.00000000
    P   1 1.00
                         0.27000580           1.00000000
    D   1 1.00
                         0.80000000           1.00000000
    ****
    H   3
    S   3 1.00
                        18.73113700           0.03349460
                         2.82539370           0.23472695
                         0.64012170           0.81375733
    S   1 1.00
                         0.16127780           1.00000000
    P   1 1.00
                         1.10000000           1.00000000
    ****
    H   4
    S   3 1.00
                        18.73113700           0.03349460
                         2.82539370           0.23472695
                         0.64012170           0.81375733
    S   1 1.00
                         0.16127780           1.00000000
    P   1 1.00
                         1.10000000           1.00000000
    ****
    H   5
    S   3 1.00
                        18.73113700           0.03349460
                         2.82539370           0.23472695
                         0.64012170           0.81375733
    S   1 1.00
                         0.16127780           1.00000000
    P   1 1.00
                         1.10000000           1.00000000
    ****

  ==> DirectJKGrad: Integral-Direct SCF Gradients <==

    Gradient:                    1
    J tasked:                  Yes
    K tasked:                  Yes
    wK tasked:                  No
    Integrals threads:           1
    Schwarz Cutoff:          0E+00

  ==> DFT Potential <==

   => Composite Functional: B3LYP <=

    B3LYP Hyb-GGA Exchange-Correlation Functional

    P. J. Stephens, F. J. Devlin, C. F. Chabalowski, and M. J. Frisch, J. Phys. Chem. 98, 11623 (1994)

    Deriv               =              1
    GGA                 =           TRUE
    Meta                =          FALSE

    Exchange Hybrid     =           TRUE
    MP2 Hybrid          =          FALSE

   => Exchange Functionals <=

    0.0800   Slater exchange
    0.7200         Becke 88

   => Exact (HF) Exchange <=

    0.2000               HF

   => Correlation Functionals <=

    0.1900   Vosko, Wilk & Nusair (VWN5_RPA)
    0.8100   Lee, Yang & Parr

   => XC_HYB_GGA_XC_B3LYP Functional <=

    B3LYP
    P. J. Stephens, F. J. Devlin, C. F. Chabalowski, and M. J. Frisch, J. Phys. Chem. 98, 11623 (1994)
    GGA   =           TRUE
    Meta  =          FALSE
    LRC   =          FALSE
    Alpha =   1.000000E+00
    Omega =   0.000000E+00

    > Parameters <

   => Molecular Quadrature <=

    Radial Scheme          =       TREUTLER
    Pruning Scheme         =           FLAT
    Nuclear Scheme         =       TREUTLER

    BS radius alpha        =              1
    Pruning alpha          =              1
    Radial Points          =             75
    Spherical Points       =            302
    Total Points           =         109432
    Total Blocks           =            876
    Max Points             =            255
    Max Functions          =             45

  -Nuclear Gradient:
     Atom            X                  Y                   Z
    ------   -----------------  -----------------  -----------------
       1        6.856807201657     1.210116811161    -2.238638866794
       2       -7.746351447737    -1.314899677446     2.477186881114
       3       -1.242718735672     1.910060136923    -1.728620879195
       4        0.872303086449    -2.202387079057    -0.553328350117
       5        1.259959895303     0.397109808419     2.043401214992

  -Core Hamiltonian Gradient:
     Atom            X                  Y                   Z
    ------   -----------------  -----------------  -----------------
       1      -12.505866327097    -3.780245043416     5.659686596411
       2       14.515506245850     3.960208076308    -6.142140426000
       3        2.649753230513    -4.748987173896     4.363673730087
       4       -1.851833083820     5.494296620681     1.265882656218
       5       -2.807560065448    -0.925272479677    -5.147102556715

  -Overlap Gradient:
     Atom            X                  Y                   Z
    ------   -----------------  -----------------  -----------------
       1        0.048084503806     0.192327688883    -0.199893187769
       2       -0.090912514153    -0.198745438015     0.212823938532
       3       -0.066140880285     0.177531166347    -0.168054220191
       4        0.038746942917    -0.191376894949    -0.028140083639
       5        0.070221947715     0.020263477734     0.183263553066

  -Coulomb Gradient:
     Atom            X                  Y                   Z
    ------   -----------------  -----------------  -----------------
       1        5.589008800995     2.635300589799    -3.477475779297
       2       -6.734159468878    -2.714480257828     3.729023493064
       3       -1.447360877673     2.918703370326    -2.708980822283
       4        1.002468785902    -3.395057498793    -0.744648704701
       5        1.590042759654     0.555533796496     3.202081813218

  -Exchange Gradient:
     Atom            X                  Y                   Z
    ------   -----------------  -----------------  -----------------
       1        0.001363287655    -0.065579538767     0.065518296741
       2        0.015118983784     0.069151549559    -0.071585600704
       3        0.027408044838    -0.066059884147     0.062113879082
       4       -0.015518466326     0.074469958118     0.015158853381
       5       -0.028371849951    -0.011982084763    -0.071205428500

  -XC Gradient:
     Atom            X                  Y                   Z
    ------   -----------------  -----------------  -----------------
       1        0.010824534526    -0.192616270885     0.191418084400
       2        0.040988135046     0.198604670121    -0.205229004299
       3        0.079066843484    -0.191135476563     0.179753989866
       4       -0.046308761256     0.221210692689     0.045538128767
       5       -0.084567241695    -0.036065002228    -0.211479257724

  -Total Gradient:
     Atom            X                  Y                   Z
    ------   -----------------  -----------------  -----------------
       1        0.000222001542    -0.000695763224     0.000615143692
       2        0.000189933912    -0.000161077301     0.000079281707
       3        0.000007625204     0.000112138990    -0.000114322634
       4       -0.000141496133     0.001155798688     0.000462499908
       5       -0.000274554422    -0.000412484019    -0.001040661663

*** tstop() called on FACC02D75Y4MD6T.tld at Sun Sep 20 10:32:51 2020
Module time:
	user time   =       0.69 seconds =       0.01 minutes
	system time =       0.00 seconds =       0.00 minutes
	total time  =          0 seconds =       0.00 minutes
Total time:
	user time   =     115.36 seconds =       1.92 minutes
	system time =       2.45 seconds =       0.04 minutes
	total time  =        118 seconds =       1.97 minutes

         ----------------------------------------------------------
                                   FINDIF
                     R. A. King and Jonathon Misiewicz
         ---------------------------------------------------------

  Vibration                       7                   8                   9
  Freq [cm^-1]                 400.4651            933.5867           1163.5113
  Irrep                           A                   A                   A
  Reduced mass [u]              1.0655              8.2953              1.1843
  Force const [mDyne/A]         0.1007              4.2598              0.9446

  Vibration                       10                  11                  12
  Freq [cm^-1]                1327.1516           1408.7376           1673.7896
  Irrep                           A                   A                   A
  Reduced mass [u]              1.1041              1.1726              1.0505
  Force const [mDyne/A]         1.1458              1.3710              1.7340

  Vibration                       13                  14                  15
  Freq [cm^-1]                3425.7716           3511.3697           3807.2666
  Irrep                           A                   A                   A
  Reduced mass [u]              1.0479              1.0954              1.0684
  Force const [mDyne/A]         7.2457              7.9572              9.1249

  ==> Thermochemistry Components <==

  Entropy, S
    Electronic S            0.000 [cal/(mol K)]        0.000 [J/(mol K)]       0.00000000 [mEh/K] (multiplicity = 1)
    Translational S        36.415 [cal/(mol K)]      152.361 [J/(mol K)]       0.05803135 [mEh/K] (mol. weight = 33.0215 [u], P = 101325.00 [Pa])
    Rotational S           18.523 [cal/(mol K)]       77.500 [J/(mol K)]       0.02951811 [mEh/K] (symmetry no. = 1)
    Vibrational S           1.178 [cal/(mol K)]        4.931 [J/(mol K)]       0.00187794 [mEh/K]
  Total S                  56.117 [cal/(mol K)]      234.792 [J/(mol K)]       0.08942740 [mEh/K]
  Correction S              0.000 [cal/(mol K)]        0.000 [J/(mol K)]       0.00000000 [mEh/K]

  Constant volume heat capacity, Cv
    Electronic Cv           0.000 [cal/(mol K)]        0.000 [J/(mol K)]       0.00000000 [mEh/K]
    Translational Cv        2.981 [cal/(mol K)]       12.472 [J/(mol K)]       0.00475022 [mEh/K]
    Rotational Cv           2.981 [cal/(mol K)]       12.472 [J/(mol K)]       0.00475022 [mEh/K]
    Vibrational Cv          2.433 [cal/(mol K)]       10.180 [J/(mol K)]       0.00387750 [mEh/K]
  Total Cv                  8.395 [cal/(mol K)]       35.124 [J/(mol K)]       0.01337793 [mEh/K]
  Correction Cv             0.000 [cal/(mol K)]        0.000 [J/(mol K)]       0.00000000 [mEh/K]

  Constant pressure heat capacity, Cp
    Electronic Cp           0.000 [cal/(mol K)]        0.000 [J/(mol K)]       0.00000000 [mEh/K]
    Translational Cp        4.968 [cal/(mol K)]       20.786 [J/(mol K)]       0.00791703 [mEh/K]
    Rotational Cp           2.981 [cal/(mol K)]       12.472 [J/(mol K)]       0.00475022 [mEh/K]
    Vibrational Cp          2.433 [cal/(mol K)]       10.180 [J/(mol K)]       0.00387750 [mEh/K]
  Total Cp                 10.382 [cal/(mol K)]       43.438 [J/(mol K)]       0.01654474 [mEh/K]
  Correction Cp             0.000 [cal/(mol K)]        0.000 [J/(mol K)]       0.00000000 [mEh/K]

  ==> Thermochemistry Energy Analysis <==

  Raw electronic energy, E0
  Total E0, Electronic energy at well bottom at 0 [K]                 -131.71577604 [Eh]

  Zero-point energy, ZPE_vib = Sum_i nu_i / 2
    Electronic ZPE          0.000 [kcal/mol]        0.000 [kJ/mol]       0.00000000 [Eh]
    Translational ZPE       0.000 [kcal/mol]        0.000 [kJ/mol]       0.00000000 [Eh]
    Rotational ZPE          0.000 [kcal/mol]        0.000 [kJ/mol]       0.00000000 [Eh]
    Vibrational ZPE        25.234 [kcal/mol]      105.580 [kJ/mol]       0.04021342 [Eh]        8825.825 [cm^-1]
  Correction ZPE           25.234 [kcal/mol]      105.580 [kJ/mol]       0.04021342 [Eh]        8825.825 [cm^-1]
  Total ZPE, Electronic energy at 0 [K]                               -131.67556262 [Eh]

  Thermal Energy, E (includes ZPE)
    Electronic E            0.000 [kcal/mol]        0.000 [kJ/mol]       0.00000000 [Eh]
    Translational E         0.889 [kcal/mol]        3.718 [kJ/mol]       0.00141628 [Eh]
    Rotational E            0.889 [kcal/mol]        3.718 [kJ/mol]       0.00141628 [Eh]
    Vibrational E          25.482 [kcal/mol]      106.618 [kJ/mol]       0.04060880 [Eh]
  Correction E             27.260 [kcal/mol]      114.055 [kJ/mol]       0.04344136 [Eh]
  Total E, Electronic energy at  298.15 [K]                           -131.67233468 [Eh]

  Enthalpy, H_trans = E_trans + k_B * T
    Electronic H            0.000 [kcal/mol]        0.000 [kJ/mol]       0.00000000 [Eh]
    Translational H         1.481 [kcal/mol]        6.197 [kJ/mol]       0.00236046 [Eh]
    Rotational H            0.889 [kcal/mol]        3.718 [kJ/mol]       0.00141628 [Eh]
    Vibrational H          25.482 [kcal/mol]      106.618 [kJ/mol]       0.04060880 [Eh]
  Correction H             27.852 [kcal/mol]      116.534 [kJ/mol]       0.04438554 [Eh]
  Total H, Enthalpy at  298.15 [K]                                    -131.67139050 [Eh]

  Gibbs free energy, G = H - T * S
    Electronic G            0.000 [kcal/mol]        0.000 [kJ/mol]       0.00000000 [Eh]
    Translational G        -9.376 [kcal/mol]      -39.229 [kJ/mol]      -0.01494159 [Eh]
    Rotational G           -4.634 [kcal/mol]      -19.388 [kJ/mol]      -0.00738455 [Eh]
    Vibrational G          25.131 [kcal/mol]      105.148 [kJ/mol]       0.04004890 [Eh]
  Correction G             11.121 [kcal/mol]       46.531 [kJ/mol]       0.01772276 [Eh]
  Total G, Free enthalpy at  298.15 [K]                               -131.69805328 [Eh]

*** Psi4 exiting successfully. Buy a developer a beer!
