                               Psi4 1.3.2 release

  ==> Input File <==

--------------------------------------------------------------------------
memory 1024 mb

molecule mol {
0 2
N 0.00000000 0.00000000 0.00000000
O -1.18925200 -0.18239900 -0.44355000
H 0.39497900 0.93995700 -0.02374500
H 0.37049900 -0.64801900 0.69490700

}

set {
  scf_type DIRECT
  basis 6-31G(d_p)
  reference uks
  geom_maxiter 50
  print 3
}

optimize('b3lyp')
scf_e, wfn=frequencies('b3lyp', return_wfn=True, dertype=1)
wfn.hessian().print_out()
--------------------------------------------------------------------------

    Molecular point group: c1
  Charge       = 0
  Multiplicity = 2
  @UKS Final Energy:  -131.08932850744404
    Total Energy =                       -131.0893285074440371
    Molecular point group: c1
  @UKS Final Energy:  -131.08933154990365
    Total Energy =                       -131.0893315499036476
  @UKS Final Energy:  -131.08933188186319
    Total Energy =                       -131.0893318818631883
  **** Optimization is complete! (in 3 steps) ****
    Final optimized geometry and variables:
  @UKS Final Energy:  -131.08933188186325
    Total Energy =                       -131.0893318818632451
  @UKS Final Energy:  -131.08933188186325
    Total Energy =                       -131.0893318818632451
  @UKS Final Energy:  -131.08933098499500
    Total Energy =                       -131.0893309849950015
  @UKS Final Energy:  -131.08933078682225
    Total Energy =                       -131.0893307868222450
  @UKS Final Energy:  -131.08932940414681
    Total Energy =                       -131.0893294041468096
  @UKS Final Energy:  -131.08932937241752
    Total Energy =                       -131.0893293724175237
  @UKS Final Energy:  -131.08933111049353
    Total Energy =                       -131.0893311104935322
  @UKS Final Energy:  -131.08933104300098
    Total Energy =                       -131.0893310430009819
  @UKS Final Energy:  -131.08932985022494
    Total Energy =                       -131.0893298502249422
  @UKS Final Energy:  -131.08932987056284
    Total Energy =                       -131.0893298705628354
  @UKS Final Energy:  -131.08932816710575
    Total Energy =                       -131.0893281671057480
  @UKS Final Energy:  -131.08932816767003
    Total Energy =                       -131.0893281676700326
  @UKS Final Energy:  -131.08932737396836
    Total Energy =                       -131.0893273739683593
    Molecular point group: c1
  Charge       = 0
  Multiplicity = 2

    Orbital Energies [Eh]
    ---------------------

    Alpha Occupied:

       1A    -19.164307     2A    -14.425938     3A     -1.090719
       4A     -0.783182     5A     -0.560034     6A     -0.473045
       7A     -0.434981     8A     -0.269780     9A     -0.218400

    Alpha Virtual:

      10A      0.058629    11A      0.134190    12A      0.222672
      13A      0.595966    14A      0.640395    15A      0.703903
      16A      0.748263    17A      0.830585    18A      0.864376
      19A      0.933537    20A      0.966699    21A      1.026199
      22A      1.313538    23A      1.371455    24A      1.432314
      25A      1.736657    26A      1.799045    27A      1.948151
      28A      2.041098    29A      2.049481    30A      2.094061
      31A      2.360988    32A      2.525692    33A      2.531047
      34A      2.762075    35A      2.806185    36A      2.919478
      37A      3.280939    38A      3.412760    39A      3.526360
      40A      3.888307

    Beta Occupied:

       1A    -19.147268     2A    -14.417106     3A     -1.061602
       4A     -0.752346     5A     -0.552785     6A     -0.450737
       7A     -0.357968     8A     -0.253484

    Beta Virtual:

       9A     -0.053172    10A      0.065019    11A      0.137813
      12A      0.239197    13A      0.605143    14A      0.671256
      15A      0.712964    16A      0.751589    17A      0.835824
      18A      0.876810    19A      0.974188    20A      0.996234
      21A      1.034743    22A      1.329118    23A      1.388818
      24A      1.458302    25A      1.772027    26A      1.832682
      27A      1.952937    28A      2.051414    29A      2.062626
      30A      2.109859    31A      2.380768    32A      2.542312
      33A      2.550873    34A      2.778297    35A      2.812339
      36A      2.925270    37A      3.288363    38A      3.417617
      39A      3.552120    40A      3.903351

    Final Occupation by Irrep:
              A
    DOCC [     8 ]
    SOCC [     1 ]

  @UKS Final Energy:  -131.08932761475609

   => Energetics <=

    Nuclear Repulsion Energy =             34.9201970056488875
    One-Electron Energy =                -248.1985379908744562
    Two-Electron Energy =                  95.2841638722801036
    DFT Exchange-Correlation Energy =     -13.0951505018106218
    Empirical Dispersion Energy =           0.0000000000000000
    VV10 Nonlocal Energy =                  0.0000000000000000
    Total Energy =                       -131.0893276147560869

  UHF NO Occupations:
  HONO-2 :    7  A 1.9997206
  HONO-1 :    8  A 1.9990960
  HONO-0 :    9  A 1.0000000
  LUNO+0 :   10  A 0.0009040
  LUNO+1 :   11  A 0.0002794
  LUNO+2 :   12  A 0.0001406
  LUNO+3 :   13  A 0.0001300

Computation Completed

Properties will be evaluated at   0.000000,   0.000000,   0.000000 [a0]

Properties computed using the SCF density matrix

  Nuclear Dipole Moment: [e a0]
     X:     1.7793      Y:     0.4294      Z:     1.0094

  Electronic Dipole Moment: [e a0]
     X:    -0.8046      Y:    -0.1696      Z:    -0.4021

  Dipole Moment: [e a0]
     X:     0.9747      Y:     0.2598      Z:     0.6073     Total:     1.1774

  Dipole Moment: [D]
     X:     2.4774      Y:     0.6603      Z:     1.5435     Total:     2.9927

*** tstop() called on FACC02D75Y4MD6T.tld at Sun Sep 20 12:22:34 2020
Module time:
	user time   =       3.11 seconds =       0.05 minutes
	system time =       0.07 seconds =       0.00 minutes
	total time  =          3 seconds =       0.05 minutes
Total time:
	user time   =      59.35 seconds =       0.99 minutes
	system time =       1.45 seconds =       0.02 minutes
	total time  =         61 seconds =       1.02 minutes

*** tstart() called on FACC02D75Y4MD6T.tld
*** at Sun Sep 20 12:22:34 2020

         ------------------------------------------------------------
                                   SCF GRAD
                          Rob Parrish, Justin Turney,
                       Andy Simmonett, and Alex Sokolov
         ------------------------------------------------------------

  ==> Geometry <==

    Molecular point group: c1
    Full point group: C1

    Geometry (in Angstrom), charge = 0, multiplicity = 2:

       Center              X                  Y                   Z               Mass
    ------------   -----------------  -----------------  -----------------  -----------------
         N            0.571833766926     0.080291332544     0.196895655140    14.003074004430
         O           -0.620522509810    -0.099200114468    -0.240336160645    15.994914619570
         H            0.963687766618     1.023746277082     0.179793944170     1.007825032230
         H            0.939196113130    -0.564964370646     0.898778134000     1.007825032230

           N
              BASIS           6-31G(D_P)           be17c05ec1461ad3097843c20da1040adf86ba79
              DF_BASIS_SCF    (6-31G(D_P) AUX)     8eb73939244d0ff71e080d82475ea73ba87737d3
           O
              BASIS           6-31G(D_P)           ec2d227169b1af6c6a69bc8715bab79dbd7bb644
              DF_BASIS_SCF    (6-31G(D_P) AUX)     b57462463db1b385e39e4428a46364991bcd7673
           H
              BASIS           6-31G(D_P)           902186d0f3205710946c2c15d2c68458d6f6cc2a
              DF_BASIS_SCF    (6-31G(D_P) AUX)     1164366b470d7a66fddaf681ef9d1c28421b3e4a
           H
              BASIS           6-31G(D_P)           902186d0f3205710946c2c15d2c68458d6f6cc2a
              DF_BASIS_SCF    (6-31G(D_P) AUX)     1164366b470d7a66fddaf681ef9d1c28421b3e4a

  Nuclear repulsion =   34.920197005648888

  ==> Basis Set <==

  -AO BASIS SET INFORMATION:
    Name                   = 6-31G(D_P)
    Blend                  = 6-31G(D_P)
    Total number of shells = 18
    Number of primitives   = 40
    Number of AO           = 40
    Number of SO           = 40
    Maximum AM             = 2
    Spherical Harmonics    = FALSE

  -Contraction Scheme:
    Atom   Type   All Primitives // Shells:
   ------ ------ --------------------------
       1     N     10s 4p 1d // 3s 2p 1d
       2     O     10s 4p 1d // 3s 2p 1d
       3     H     4s 1p // 2s 1p
       4     H     4s 1p // 2s 1p

  ==> AO Basis Functions <==

    [ 6-31G(D_P) ]
    cartesian
    ****
    N   1
    S   6 1.00
                      4173.51100000           0.00183480
                       627.45790000           0.01399500
                       142.90210000           0.06858700
                        40.23433000           0.23224100
                        12.82021000           0.46907000
                         4.39043700           0.36045500
    S   3 1.00
                        11.62635800          -0.11496100
                         2.71628000          -0.16911800
                         0.77221800           1.14585200
    P   3 1.00
                        11.62635800           0.06758000
                         2.71628000           0.32390700
                         0.77221800           0.74089500
    S   1 1.00
                         0.21203130           1.00000000
    P   1 1.00
                         0.21203130           1.00000000
    D   1 1.00
                         0.80000000           1.00000000
    ****
    O   2
    S   6 1.00
                      5484.67170000           0.00183110
                       825.23495000           0.01395010
                       188.04696000           0.06844510
                        52.96450000           0.23271430
                        16.89757000           0.47019300
                         5.79963530           0.35852090
    S   3 1.00
                        15.53961600          -0.11077750
                         3.59993360          -0.14802630
                         1.01376180           1.13076700
    P   3 1.00
                        15.53961600           0.07087430
                         3.59993360           0.33975280
                         1.01376180           0.72715860
    S   1 1.00
                         0.27000580           1.00000000
    P   1 1.00
                         0.27000580           1.00000000
    D   1 1.00
                         0.80000000           1.00000000
    ****
    H   3
    S   3 1.00
                        18.73113700           0.03349460
                         2.82539370           0.23472695
                         0.64012170           0.81375733
    S   1 1.00
                         0.16127780           1.00000000
    P   1 1.00
                         1.10000000           1.00000000
    ****
    H   4
    S   3 1.00
                        18.73113700           0.03349460
                         2.82539370           0.23472695
                         0.64012170           0.81375733
    S   1 1.00
                         0.16127780           1.00000000
    P   1 1.00
                         1.10000000           1.00000000
    ****

  ==> DirectJKGrad: Integral-Direct SCF Gradients <==

    Gradient:                    1
    J tasked:                  Yes
    K tasked:                  Yes
    wK tasked:                  No
    Integrals threads:           1
    Schwarz Cutoff:          0E+00

  ==> DFT Potential <==

   => Composite Functional: B3LYP <=

    B3LYP Hyb-GGA Exchange-Correlation Functional

    P. J. Stephens, F. J. Devlin, C. F. Chabalowski, and M. J. Frisch, J. Phys. Chem. 98, 11623 (1994)

    Deriv               =              1
    GGA                 =           TRUE
    Meta                =          FALSE

    Exchange Hybrid     =           TRUE
    MP2 Hybrid          =          FALSE

   => Exchange Functionals <=

    0.0800   Slater exchange
    0.7200         Becke 88

   => Exact (HF) Exchange <=

    0.2000               HF

   => Correlation Functionals <=

    0.1900   Vosko, Wilk & Nusair (VWN5_RPA)
    0.8100   Lee, Yang & Parr

   => XC_HYB_GGA_XC_B3LYP Functional <=

    B3LYP
    P. J. Stephens, F. J. Devlin, C. F. Chabalowski, and M. J. Frisch, J. Phys. Chem. 98, 11623 (1994)
    GGA   =           TRUE
    Meta  =          FALSE
    LRC   =          FALSE
    Alpha =   1.000000E+00
    Omega =   0.000000E+00

    > Parameters <

   => Molecular Quadrature <=

    Radial Scheme          =       TREUTLER
    Pruning Scheme         =           FLAT
    Nuclear Scheme         =       TREUTLER

    BS radius alpha        =              1
    Pruning alpha          =              1
    Radial Points          =             75
    Spherical Points       =            302
    Total Points           =          87064
    Total Blocks           =            720
    Max Points             =            256
    Max Functions          =             40

  -Nuclear Gradient:
     Atom            X                  Y                   Z
    ------   -----------------  -----------------  -----------------
       1       -7.466260892615    -0.785957044326    -1.991029872847
       2        9.759594154452     1.521697457525     3.694887400441
       3       -1.173962109703    -2.138466277688    -0.050630682476
       4       -1.119371152134     1.402725864490    -1.653226845118

  -Core Hamiltonian Gradient:
     Atom            X                  Y                   Z
    ------   -----------------  -----------------  -----------------
       1       15.144392408298     1.298486415971     3.385095621705
       2      -20.426471849198    -3.087851185187    -7.518914312505
       3        2.711079441637     5.438000340896     0.010792802461
       4        2.570999999264    -3.648635571679     4.123025888341

  -Overlap Gradient:
     Atom            X                  Y                   Z
    ------   -----------------  -----------------  -----------------
       1       -0.166494699181     0.021428888938     0.041679072428
       2        0.328965272583     0.045337557211     0.111386557974
       3       -0.083859198418    -0.203590442349     0.000495886502
       4       -0.078611374984     0.136823996201    -0.153561516903

  -Coulomb Gradient:
     Atom            X                  Y                   Z
    ------   -----------------  -----------------  -----------------
       1       -7.671235125243    -0.497567514190    -1.360770006102
       2       10.731889596963     1.575369804684     3.846605890276
       3       -1.574326019444    -3.393003227422     0.048729825673
       4       -1.486328452276     2.315200936928    -2.534565709847

  -Exchange Gradient:
     Atom            X                  Y                   Z
    ------   -----------------  -----------------  -----------------
       1        0.043368096665    -0.008974606858    -0.018353533061
       2       -0.102869154682    -0.014185247924    -0.034848742857
       3        0.030739634232     0.075740950610    -0.002435469779
       4        0.028761423784    -0.052581095829     0.055637745697

  -XC Gradient:
     Atom            X                  Y                   Z
    ------   -----------------  -----------------  -----------------
       1        0.115692345692    -0.027669977805    -0.057200294997
       2       -0.291239045374    -0.040386922224    -0.099162227731
       3        0.090681397111     0.222571020304    -0.007144841913
       4        0.084868264965    -0.154513846336     0.163508070874

  -Total Gradient:
     Atom            X                  Y                   Z
    ------   -----------------  -----------------  -----------------
       1       -0.000537866384    -0.000253838271    -0.000579012873
       2       -0.000131025256    -0.000018535915    -0.000045434403
       3        0.000353145415     0.001252364351    -0.000192479532
       4        0.000318708619    -0.000979716225     0.000817633043

*** tstop() called on FACC02D75Y4MD6T.tld at Sun Sep 20 12:22:34 2020
Module time:
	user time   =       0.50 seconds =       0.01 minutes
	system time =       0.01 seconds =       0.00 minutes
	total time  =          0 seconds =       0.00 minutes
Total time:
	user time   =      59.85 seconds =       1.00 minutes
	system time =       1.46 seconds =       0.02 minutes
	total time  =         61 seconds =       1.02 minutes

         ----------------------------------------------------------
                                   FINDIF
                     R. A. King and Jonathon Misiewicz
         ---------------------------------------------------------

  Computing second-derivative from gradients using projected,
  symmetry-adapted, cartesian coordinates.

  13 gradients passed in, including the reference geometry.
  Generating complete list of displacements from unique ones.

    The atom map:
     1 :    1
     2 :    2
     3 :    3
     4 :    4

    Symmetric gradients

[[-1.0264440627e-03 -2.1675023696e-04 -4.6484870266e-04]
 [ 7.4981614082e-04  1.0825005470e-04  2.5868647994e-04]
 [ 1.4393722589e-04  1.8461770976e-04  4.8058721850e-05]
 [ 1.3563444840e-04 -7.5743720909e-05  1.5903012943e-04]]

[[ 1.1244459282e-03  2.3716559402e-04  5.1342608333e-04]
 [-8.3983695327e-04 -1.2533222968e-04 -2.9953117872e-04]
 [-1.4534367927e-04 -2.1344673870e-04 -3.8649139745e-05]
 [-1.3621614546e-04  1.0190313039e-04 -1.7450195576e-04]]

  Vibration                       7                   8                   9
  Freq [cm^-1]                 467.3057           1278.4279           1387.4056
  Irrep                           A                   A                   A
  Reduced mass [u]              1.2855              1.2329              8.4186
  Force const [mDyne/A]         0.1654              1.1872              9.5477

  Vibration                       10                  11                  12
  Freq [cm^-1]                1674.9776           3391.2849           3520.7316
  Irrep                           A                   A                   A
  Reduced mass [u]              1.0998              1.0344              1.1111
  Force const [mDyne/A]         1.8179              7.0090              8.1147

  ==> Thermochemistry Components <==

  Entropy, S
    Electronic S            1.377 [cal/(mol K)]        5.763 [J/(mol K)]       0.00219507 [mEh/K] (multiplicity = 2)
    Translational S        36.323 [cal/(mol K)]      151.975 [J/(mol K)]       0.05788411 [mEh/K] (mol. weight = 32.0136 [u], P = 101325.00 [Pa])
    Rotational S           17.529 [cal/(mol K)]       73.343 [J/(mol K)]       0.02793503 [mEh/K] (symmetry no. = 1)
    Vibrational S           0.800 [cal/(mol K)]        3.345 [J/(mol K)]       0.00127412 [mEh/K]
  Total S                  56.029 [cal/(mol K)]      234.426 [J/(mol K)]       0.08928833 [mEh/K]
  Correction S              0.000 [cal/(mol K)]        0.000 [J/(mol K)]       0.00000000 [mEh/K]

  Constant volume heat capacity, Cv
    Electronic Cv           0.000 [cal/(mol K)]        0.000 [J/(mol K)]       0.00000000 [mEh/K]
    Translational Cv        2.981 [cal/(mol K)]       12.472 [J/(mol K)]       0.00475022 [mEh/K]
    Rotational Cv           2.981 [cal/(mol K)]       12.472 [J/(mol K)]       0.00475022 [mEh/K]
    Vibrational Cv          1.632 [cal/(mol K)]        6.829 [J/(mol K)]       0.00260100 [mEh/K]
  Total Cv                  7.594 [cal/(mol K)]       31.772 [J/(mol K)]       0.01210143 [mEh/K]
  Correction Cv             0.000 [cal/(mol K)]        0.000 [J/(mol K)]       0.00000000 [mEh/K]

  Constant pressure heat capacity, Cp
    Electronic Cp           0.000 [cal/(mol K)]        0.000 [J/(mol K)]       0.00000000 [mEh/K]
    Translational Cp        4.968 [cal/(mol K)]       20.786 [J/(mol K)]       0.00791703 [mEh/K]
    Rotational Cp           2.981 [cal/(mol K)]       12.472 [J/(mol K)]       0.00475022 [mEh/K]
    Vibrational Cp          1.632 [cal/(mol K)]        6.829 [J/(mol K)]       0.00260100 [mEh/K]
  Total Cp                  9.581 [cal/(mol K)]       40.087 [J/(mol K)]       0.01526824 [mEh/K]
  Correction Cp             0.000 [cal/(mol K)]        0.000 [J/(mol K)]       0.00000000 [mEh/K]

  ==> Thermochemistry Energy Analysis <==

  Raw electronic energy, E0
  Total E0, Electronic energy at well bottom at 0 [K]                 -131.08933188 [Eh]

  Zero-point energy, ZPE_vib = Sum_i nu_i / 2
    Electronic ZPE          0.000 [kcal/mol]        0.000 [kJ/mol]       0.00000000 [Eh]
    Translational ZPE       0.000 [kcal/mol]        0.000 [kJ/mol]       0.00000000 [Eh]
    Rotational ZPE          0.000 [kcal/mol]        0.000 [kJ/mol]       0.00000000 [Eh]
    Vibrational ZPE        16.755 [kcal/mol]       70.102 [kJ/mol]       0.02670043 [Eh]        5860.067 [cm^-1]
  Correction ZPE           16.755 [kcal/mol]       70.102 [kJ/mol]       0.02670043 [Eh]        5860.067 [cm^-1]
  Total ZPE, Electronic energy at 0 [K]                               -131.06263145 [Eh]

  Thermal Energy, E (includes ZPE)
    Electronic E            0.000 [kcal/mol]        0.000 [kJ/mol]       0.00000000 [Eh]
    Translational E         0.889 [kcal/mol]        3.718 [kJ/mol]       0.00141628 [Eh]
    Rotational E            0.889 [kcal/mol]        3.718 [kJ/mol]       0.00141628 [Eh]
    Vibrational E          16.925 [kcal/mol]       70.816 [kJ/mol]       0.02697227 [Eh]
  Correction E             18.703 [kcal/mol]       78.253 [kJ/mol]       0.02980482 [Eh]
  Total E, Electronic energy at  298.15 [K]                           -131.05952706 [Eh]

  Enthalpy, H_trans = E_trans + k_B * T
    Electronic H            0.000 [kcal/mol]        0.000 [kJ/mol]       0.00000000 [Eh]
    Translational H         1.481 [kcal/mol]        6.197 [kJ/mol]       0.00236046 [Eh]
    Rotational H            0.889 [kcal/mol]        3.718 [kJ/mol]       0.00141628 [Eh]
    Vibrational H          16.925 [kcal/mol]       70.816 [kJ/mol]       0.02697227 [Eh]
  Correction H             19.295 [kcal/mol]       80.732 [kJ/mol]       0.03074901 [Eh]
  Total H, Enthalpy at  298.15 [K]                                    -131.05858287 [Eh]

  Gibbs free energy, G = H - T * S
    Electronic G           -0.411 [kcal/mol]       -1.718 [kJ/mol]      -0.00065446 [Eh]
    Translational G        -9.348 [kcal/mol]      -39.114 [kJ/mol]      -0.01489769 [Eh]
    Rotational G           -4.338 [kcal/mol]      -18.149 [kJ/mol]      -0.00691255 [Eh]
    Vibrational G          16.687 [kcal/mol]       69.818 [kJ/mol]       0.02659239 [Eh]
  Correction G              2.590 [kcal/mol]       10.837 [kJ/mol]       0.00412769 [Eh]
  Total G, Free enthalpy at  298.15 [K]                               -131.08520419 [Eh]

*** Psi4 exiting successfully. Buy a developer a beer!
