                               Psi4 1.3.2 release

  ==> Input File <==

--------------------------------------------------------------------------
memory 1024 mb

molecule mol {
0 2
N 0.00000000 0.00000000 0.00000000
O -1.07573100 0.00000000 0.67649500
O 1.07733200 0.00000000 0.67680200

}

set {
  scf_type DIRECT
  basis 6-31G(d_p)
  reference uks
  geom_maxiter 50
  print 3
}

optimize('b3lyp')
scf_e, wfn=frequencies('b3lyp', return_wfn=True, dertype=1)
wfn.hessian().print_out()
--------------------------------------------------------------------------

    Molecular point group: cs
  Charge       = 0
  Multiplicity = 2
  @UKS Final Energy:  -205.04580990344664
    Total Energy =                       -205.0458099034466386
    Molecular point group: cs
  @UKS Final Energy:  -205.06894825562989
    Total Energy =                       -205.0689482556298913
  @UKS Final Energy:  -205.07193199142074
    Total Energy =                       -205.0719319914207404
  @UKS Final Energy:  -205.07217427106389
    Total Energy =                       -205.0721742710638864
  @UKS Final Energy:  -205.07220485870175
    Total Energy =                       -205.0722048587017525
  @UKS Final Energy:  -205.07220522010101
    Total Energy =                       -205.0722052201010115
  **** Optimization is complete! (in 6 steps) ****
    Final optimized geometry and variables:
  @UKS Final Energy:  -205.07220522010078
    Total Energy =                       -205.0722052201007841
  @UKS Final Energy:  -205.07220522010078
    Total Energy =                       -205.0722052201007841
  @UKS Final Energy:  -205.07220382605476
    Total Energy =                       -205.0722038260547606
  @UKS Final Energy:  -205.07220381504848
    Total Energy =                       -205.0722038150484821
  @UKS Final Energy:  -205.07220466253793
    Total Energy =                       -205.0722046625379278
  @UKS Final Energy:  -205.07220464900428
    Total Energy =                       -205.0722046490042771
  @UKS Final Energy:  -205.07220462632125
    Total Energy =                       -205.0722046263212519
    Molecular point group: cs
  Charge       = 0
  Multiplicity = 2

    Orbital Energies [Eh]
    ---------------------

    Alpha Occupied:

       1Ap   -19.265748     2Ap   -19.265738     3Ap   -14.587197
       4Ap    -1.281454     5Ap    -1.136150     6Ap    -0.678352
       7Ap    -0.574778     8Ap    -0.572011     1App   -0.564777
       9Ap    -0.381571     2App   -0.377448    10Ap    -0.287789

    Alpha Virtual:

       3App   -0.090522    11Ap     0.209520    12Ap     0.369245
      13Ap     0.583792    14Ap     0.590809    15Ap     0.592669
       4App    0.611881    16Ap     0.779756    17Ap     0.820212
       5App    0.879347    18Ap     0.889269     6App    0.938120
      19Ap     0.952373    20Ap     1.273517     7App    1.371400
      21Ap     1.389630     8App    1.399475    22Ap     1.467532
      23Ap     1.711596     9App    1.730692    24Ap     1.812615
      10App    1.832104    25Ap     1.832270    26Ap     2.196201
      11App    2.323810    27Ap     2.640831    28Ap     2.693927
      12App    2.703451    29Ap     2.770840    30Ap     2.858142
      31Ap     3.405850    32Ap     3.625607    33Ap     3.704492

    Beta Occupied:

       1Ap   -19.256837     2Ap   -19.256820     3Ap   -14.576562
       4Ap    -1.262755     5Ap    -1.114634     6Ap    -0.644996
       1App   -0.553843     7Ap    -0.548220     8Ap    -0.529592
       2App   -0.369849     9Ap    -0.341075

    Beta Virtual:

      10Ap    -0.143186     3App   -0.074040    11Ap     0.222781
      12Ap     0.395003    13Ap     0.596829    14Ap     0.598622
       4App    0.619784    15Ap     0.620874    16Ap     0.785594
      17Ap     0.838121     5App    0.883661    18Ap     0.914946
       6App    0.944720    19Ap     0.968965    20Ap     1.289224
       7App    1.376565    21Ap     1.402488     8App    1.420253
      22Ap     1.488136    23Ap     1.729387     9App    1.742167
      24Ap     1.833832    25Ap     1.841611    10App    1.854996
      26Ap     2.213330    11App    2.333978    27Ap     2.669610
      28Ap     2.714057    12App    2.714360    29Ap     2.780597
      30Ap     2.874962    31Ap     3.423874    32Ap     3.638109
      33Ap     3.724181

    Final Occupation by Irrep:
             Ap   App
    DOCC [     9,    2 ]
    SOCC [     1,    0 ]

  @UKS Final Energy:  -205.07220454790462

   => Energetics <=

    Nuclear Repulsion Energy =             64.5353017452580957
    One-Electron Energy =                -407.8941352767769786
    Two-Electron Energy =                 157.6289304733384427
    DFT Exchange-Correlation Energy =     -19.3423014897241679
    Empirical Dispersion Energy =           0.0000000000000000
    VV10 Nonlocal Energy =                  0.0000000000000000
    Total Energy =                       -205.0722045479046187

  UHF NO Occupations:
  HONO-2 :    8 Ap 1.9994911
  HONO-1 :    9 Ap 1.9991023
  HONO-0 :   10 Ap 1.0000000
  LUNO+0 :   11 Ap 0.0008977
  LUNO+1 :   12 Ap 0.0005089
  LUNO+2 :    3App 0.0001167
  LUNO+3 :   13 Ap 0.0000634

Computation Completed

Properties will be evaluated at   0.000000,   0.000000,   0.000000 [a0]

Properties computed using the SCF density matrix

  Nuclear Dipole Moment: [e a0]
     X:     0.0000      Y:     0.0023      Z:     0.0000

  Electronic Dipole Moment: [e a0]
     X:    -0.0000      Y:    -0.1285      Z:     0.0000

  Dipole Moment: [e a0]
     X:    -0.0000      Y:    -0.1262      Z:     0.0000     Total:     0.1262

  Dipole Moment: [D]
     X:    -0.0000      Y:    -0.3208      Z:     0.0000     Total:     0.3208

*** tstop() called on FACC02D75Y4MD6T.tld at Sun Sep 20 12:16:21 2020
Module time:
	user time   =       2.63 seconds =       0.04 minutes
	system time =       0.06 seconds =       0.00 minutes
	total time  =          3 seconds =       0.05 minutes
Total time:
	user time   =      46.06 seconds =       0.77 minutes
	system time =       1.15 seconds =       0.02 minutes
	total time  =         47 seconds =       0.78 minutes

*** tstart() called on FACC02D75Y4MD6T.tld
*** at Sun Sep 20 12:16:21 2020

         ------------------------------------------------------------
                                   SCF GRAD
                          Rob Parrish, Justin Turney,
                       Andy Simmonett, and Alex Sokolov
         ------------------------------------------------------------

  ==> Geometry <==

    Molecular point group: cs
    Full point group: Cs

    Geometry (in Angstrom), charge = 0, multiplicity = 2:

       Center              X                  Y                   Z               Mass
    ------------   -----------------  -----------------  -----------------  -----------------
         N           -0.000019872936    -0.328049697556     0.000000000000    14.003074004430
         O            1.107329803173     0.143527797100     0.000000000000    15.994914619570
         O           -1.107312405006     0.143669996778     0.000000000000    15.994914619570

           N
              BASIS           6-31G(D_P)           be17c05ec1461ad3097843c20da1040adf86ba79
              DF_BASIS_SCF    (6-31G(D_P) AUX)     8eb73939244d0ff71e080d82475ea73ba87737d3
           O
              BASIS           6-31G(D_P)           ec2d227169b1af6c6a69bc8715bab79dbd7bb644
              DF_BASIS_SCF    (6-31G(D_P) AUX)     b57462463db1b385e39e4428a46364991bcd7673
           O
              BASIS           6-31G(D_P)           ec2d227169b1af6c6a69bc8715bab79dbd7bb644
              DF_BASIS_SCF    (6-31G(D_P) AUX)     b57462463db1b385e39e4428a46364991bcd7673

  Nuclear repulsion =   64.535301745258096

  ==> Basis Set <==

  -AO BASIS SET INFORMATION:
    Name                   = 6-31G(D_P)
    Blend                  = 6-31G(D_P)
    Total number of shells = 18
    Number of primitives   = 45
    Number of AO           = 45
    Number of SO           = 45
    Maximum AM             = 2
    Spherical Harmonics    = FALSE

  -Contraction Scheme:
    Atom   Type   All Primitives // Shells:
   ------ ------ --------------------------
       1     N     10s 4p 1d // 3s 2p 1d
       2     O     10s 4p 1d // 3s 2p 1d
       3     O     10s 4p 1d // 3s 2p 1d

  ==> AO Basis Functions <==

    [ 6-31G(D_P) ]
    cartesian
    ****
    N   1
    S   6 1.00
                      4173.51100000           0.00183480
                       627.45790000           0.01399500
                       142.90210000           0.06858700
                        40.23433000           0.23224100
                        12.82021000           0.46907000
                         4.39043700           0.36045500
    S   3 1.00
                        11.62635800          -0.11496100
                         2.71628000          -0.16911800
                         0.77221800           1.14585200
    P   3 1.00
                        11.62635800           0.06758000
                         2.71628000           0.32390700
                         0.77221800           0.74089500
    S   1 1.00
                         0.21203130           1.00000000
    P   1 1.00
                         0.21203130           1.00000000
    D   1 1.00
                         0.80000000           1.00000000
    ****
    O   2
    S   6 1.00
                      5484.67170000           0.00183110
                       825.23495000           0.01395010
                       188.04696000           0.06844510
                        52.96450000           0.23271430
                        16.89757000           0.47019300
                         5.79963530           0.35852090
    S   3 1.00
                        15.53961600          -0.11077750
                         3.59993360          -0.14802630
                         1.01376180           1.13076700
    P   3 1.00
                        15.53961600           0.07087430
                         3.59993360           0.33975280
                         1.01376180           0.72715860
    S   1 1.00
                         0.27000580           1.00000000
    P   1 1.00
                         0.27000580           1.00000000
    D   1 1.00
                         0.80000000           1.00000000
    ****
    O   3
    S   6 1.00
                      5484.67170000           0.00183110
                       825.23495000           0.01395010
                       188.04696000           0.06844510
                        52.96450000           0.23271430
                        16.89757000           0.47019300
                         5.79963530           0.35852090
    S   3 1.00
                        15.53961600          -0.11077750
                         3.59993360          -0.14802630
                         1.01376180           1.13076700
    P   3 1.00
                        15.53961600           0.07087430
                         3.59993360           0.33975280
                         1.01376180           0.72715860
    S   1 1.00
                         0.27000580           1.00000000
    P   1 1.00
                         0.27000580           1.00000000
    D   1 1.00
                         0.80000000           1.00000000
    ****

  ==> DirectJKGrad: Integral-Direct SCF Gradients <==

    Gradient:                    1
    J tasked:                  Yes
    K tasked:                  Yes
    wK tasked:                  No
    Integrals threads:           1
    Schwarz Cutoff:          0E+00

  ==> DFT Potential <==

   => Composite Functional: B3LYP <=

    B3LYP Hyb-GGA Exchange-Correlation Functional

    P. J. Stephens, F. J. Devlin, C. F. Chabalowski, and M. J. Frisch, J. Phys. Chem. 98, 11623 (1994)

    Deriv               =              1
    GGA                 =           TRUE
    Meta                =          FALSE

    Exchange Hybrid     =           TRUE
    MP2 Hybrid          =          FALSE

   => Exchange Functionals <=

    0.0800   Slater exchange
    0.7200         Becke 88

   => Exact (HF) Exchange <=

    0.2000               HF

   => Correlation Functionals <=

    0.1900   Vosko, Wilk & Nusair (VWN5_RPA)
    0.8100   Lee, Yang & Parr

   => XC_HYB_GGA_XC_B3LYP Functional <=

    B3LYP
    P. J. Stephens, F. J. Devlin, C. F. Chabalowski, and M. J. Frisch, J. Phys. Chem. 98, 11623 (1994)
    GGA   =           TRUE
    Meta  =          FALSE
    LRC   =          FALSE
    Alpha =   1.000000E+00
    Omega =   0.000000E+00

    > Parameters <

   => Molecular Quadrature <=

    Radial Scheme          =       TREUTLER
    Pruning Scheme         =           FLAT
    Nuclear Scheme         =       TREUTLER

    BS radius alpha        =              1
    Pruning alpha          =              1
    Radial Points          =             75
    Spherical Points       =            302
    Total Points           =          63045
    Total Blocks           =            556
    Max Points             =            255
    Max Functions          =             45

  -Nuclear Gradient:
     Atom            X                  Y                   Z
    ------   -----------------  -----------------  -----------------
       1        0.000592165386     8.484192648787     0.000000000000
       2      -13.613805831077    -4.241238870651     0.000000000000
       3       13.613213665690    -4.242953778136     0.000000000000

  -Core Hamiltonian Gradient:
     Atom            X                  Y                   Z
    ------   -----------------  -----------------  -----------------
       1       -0.001297444621   -18.626073394757     0.000000000000
       2       30.116330016355     9.311141897109     0.000000000000
       3      -30.115032571732     9.314931497646     0.000000000000

  -Overlap Gradient:
     Atom            X                  Y                   Z
    ------   -----------------  -----------------  -----------------
       1        0.000026412159     0.361964405426    -0.000000000000
       2       -0.464198275631    -0.180953416485    -0.000000000000
       3        0.464171863472    -0.181010988941    -0.000000000000

  -Coulomb Gradient:
     Atom            X                  Y                   Z
    ------   -----------------  -----------------  -----------------
       1        0.000715479449    10.232220270266     0.000000000000
       2      -16.640731605236    -5.115064983153     0.000000000000
       3       16.640016125787    -5.117155287113     0.000000000000

  -Exchange Gradient:
     Atom            X                  Y                   Z
    ------   -----------------  -----------------  -----------------
       1       -0.000008795489    -0.120669453956    -0.000000000000
       2        0.159892886568     0.060324803888    -0.000000000000
       3       -0.159884091079     0.060344650068    -0.000000000000

  -XC Gradient:
     Atom            X                  Y                   Z
    ------   -----------------  -----------------  -----------------
       1       -0.000024535729    -0.332039545904    -0.000000000000
       2        0.443219898818     0.165985430315    -0.000000000000
       3       -0.443195364270     0.166040269298    -0.000000000000

  -Total Gradient:
     Atom            X                  Y                   Z
    ------   -----------------  -----------------  -----------------
       1        0.000003281155    -0.000405070138     0.000000000000
       2        0.000707089797     0.000194861023     0.000000000000
       3       -0.000710372130     0.000196362822     0.000000000000

*** tstop() called on FACC02D75Y4MD6T.tld at Sun Sep 20 12:16:21 2020
Module time:
	user time   =       0.55 seconds =       0.01 minutes
	system time =       0.01 seconds =       0.00 minutes
	total time  =          0 seconds =       0.00 minutes
Total time:
	user time   =      46.61 seconds =       0.78 minutes
	system time =       1.16 seconds =       0.02 minutes
	total time  =         47 seconds =       0.78 minutes

         ----------------------------------------------------------
                                   FINDIF
                     R. A. King and Jonathon Misiewicz
         ---------------------------------------------------------

  Computing second-derivative from gradients using projected,
  symmetry-adapted, cartesian coordinates.

  7 gradients passed in, including the reference geometry.
  Generating complete list of displacements from unique ones.

    The atom map:
     1 :    1   1
     2 :    2   2
     3 :    3   3

    Symmetric gradients

[[-1.6973889806e-03  1.1325146208e-05  0.0000000000e+00]
 [ 8.3938125237e-04  3.4912211372e-04  0.0000000000e+00]
 [ 8.5815704305e-04 -3.7431278691e-04  0.0000000000e+00]]

[[ 1.7040776780e-03  1.1225735946e-05  0.0000000000e+00]
 [-8.6162392087e-04 -3.7568686019e-04  0.0000000000e+00]
 [-8.4260543796e-04  3.5059565486e-04  0.0000000000e+00]]

[[ 3.3730086515e-06 -6.9648492339e-04  0.0000000000e+00]
 [ 3.6653888700e-04  3.4041991959e-04  0.0000000000e+00]
 [-3.6991310653e-04  3.4192799394e-04  0.0000000000e+00]]

[[ 3.2696980067e-06  7.1250077290e-04  0.0000000000e+00]
 [-3.8331380486e-04 -3.6370760548e-04  0.0000000000e+00]
 [ 3.8004295181e-04 -3.6238175253e-04  0.0000000000e+00]]

[[ 3.3625612893e-06  4.2274735430e-04  0.0000000000e+00]

  Vibration                       7                   8                   9
  Freq [cm^-1]                 748.9606           1403.6019           1720.0907
  Irrep                           Ap                  Ap                  Ap
  Reduced mass [u]             15.1673             15.3154             14.6239
  Force const [mDyne/A]         5.0127             17.7774             25.4927

  ==> Thermochemistry Components <==

  Entropy, S
    Electronic S            1.377 [cal/(mol K)]        5.763 [J/(mol K)]       0.00219507 [mEh/K] (multiplicity = 2)
    Translational S        37.403 [cal/(mol K)]      156.494 [J/(mol K)]       0.05960524 [mEh/K] (mol. weight = 45.9929 [u], P = 101325.00 [Pa])
    Rotational S           19.709 [cal/(mol K)]       82.461 [J/(mol K)]       0.03140783 [mEh/K] (symmetry no. = 1)
    Vibrational S           0.275 [cal/(mol K)]        1.152 [J/(mol K)]       0.00043883 [mEh/K]
  Total S                  58.764 [cal/(mol K)]      245.870 [J/(mol K)]       0.09364696 [mEh/K]
  Correction S              0.000 [cal/(mol K)]        0.000 [J/(mol K)]       0.00000000 [mEh/K]

  Constant volume heat capacity, Cv
    Electronic Cv           0.000 [cal/(mol K)]        0.000 [J/(mol K)]       0.00000000 [mEh/K]
    Translational Cv        2.981 [cal/(mol K)]       12.472 [J/(mol K)]       0.00475022 [mEh/K]
    Rotational Cv           2.981 [cal/(mol K)]       12.472 [J/(mol K)]       0.00475022 [mEh/K]
    Vibrational Cv          0.877 [cal/(mol K)]        3.670 [J/(mol K)]       0.00139766 [mEh/K]
  Total Cv                  6.839 [cal/(mol K)]       28.613 [J/(mol K)]       0.01089809 [mEh/K]
  Correction Cv             0.000 [cal/(mol K)]        0.000 [J/(mol K)]       0.00000000 [mEh/K]

  Constant pressure heat capacity, Cp
    Electronic Cp           0.000 [cal/(mol K)]        0.000 [J/(mol K)]       0.00000000 [mEh/K]
    Translational Cp        4.968 [cal/(mol K)]       20.786 [J/(mol K)]       0.00791703 [mEh/K]
    Rotational Cp           2.981 [cal/(mol K)]       12.472 [J/(mol K)]       0.00475022 [mEh/K]
    Vibrational Cp          0.877 [cal/(mol K)]        3.670 [J/(mol K)]       0.00139766 [mEh/K]
  Total Cp                  8.826 [cal/(mol K)]       36.927 [J/(mol K)]       0.01406490 [mEh/K]
  Correction Cp             0.000 [cal/(mol K)]        0.000 [J/(mol K)]       0.00000000 [mEh/K]

  ==> Thermochemistry Energy Analysis <==

  Raw electronic energy, E0
  Total E0, Electronic energy at well bottom at 0 [K]                 -205.07220522 [Eh]

  Zero-point energy, ZPE_vib = Sum_i nu_i / 2
    Electronic ZPE          0.000 [kcal/mol]        0.000 [kJ/mol]       0.00000000 [Eh]
    Translational ZPE       0.000 [kcal/mol]        0.000 [kJ/mol]       0.00000000 [Eh]
    Rotational ZPE          0.000 [kcal/mol]        0.000 [kJ/mol]       0.00000000 [Eh]
    Vibrational ZPE         5.536 [kcal/mol]       23.164 [kJ/mol]       0.00882255 [Eh]        1936.327 [cm^-1]
  Correction ZPE            5.536 [kcal/mol]       23.164 [kJ/mol]       0.00882255 [Eh]        1936.327 [cm^-1]
  Total ZPE, Electronic energy at 0 [K]                               -205.06338267 [Eh]

  Thermal Energy, E (includes ZPE)
    Electronic E            0.000 [kcal/mol]        0.000 [kJ/mol]       0.00000000 [Eh]
    Translational E         0.889 [kcal/mol]        3.718 [kJ/mol]       0.00141628 [Eh]
    Rotational E            0.889 [kcal/mol]        3.718 [kJ/mol]       0.00141628 [Eh]
    Vibrational E           5.601 [kcal/mol]       23.436 [kJ/mol]       0.00892629 [Eh]
  Correction E              7.379 [kcal/mol]       30.873 [kJ/mol]       0.01175885 [Eh]
  Total E, Electronic energy at  298.15 [K]                           -205.06044637 [Eh]

  Enthalpy, H_trans = E_trans + k_B * T
    Electronic H            0.000 [kcal/mol]        0.000 [kJ/mol]       0.00000000 [Eh]
    Translational H         1.481 [kcal/mol]        6.197 [kJ/mol]       0.00236046 [Eh]
    Rotational H            0.889 [kcal/mol]        3.718 [kJ/mol]       0.00141628 [Eh]
    Vibrational H           5.601 [kcal/mol]       23.436 [kJ/mol]       0.00892629 [Eh]
  Correction H              7.971 [kcal/mol]       33.352 [kJ/mol]       0.01270303 [Eh]
  Total H, Enthalpy at  298.15 [K]                                    -205.05950219 [Eh]

  Gibbs free energy, G = H - T * S
    Electronic G           -0.411 [kcal/mol]       -1.718 [kJ/mol]      -0.00065446 [Eh]
    Translational G        -9.670 [kcal/mol]      -40.461 [kJ/mol]      -0.01541084 [Eh]
    Rotational G           -4.987 [kcal/mol]      -20.867 [kJ/mol]      -0.00794797 [Eh]
    Vibrational G           5.519 [kcal/mol]       23.092 [kJ/mol]       0.00879546 [Eh]
  Correction G             -9.549 [kcal/mol]      -39.954 [kJ/mol]      -0.01521781 [Eh]
  Total G, Free enthalpy at  298.15 [K]                               -205.08742303 [Eh]

*** Psi4 exiting successfully. Buy a developer a beer!
