                               Psi4 1.3.2 release

  ==> Input File <==

--------------------------------------------------------------------------
memory 1024 mb

molecule mol {
0 2
C 0.00000000 0.00000000 0.00000000
H -1.00458947 -0.58000000 0.00000000
H 1.00458947 -0.58000000 0.00000000
H 0.00000000 1.16000000 0.00000000

}

set {
  scf_type DIRECT
  basis 6-31G(d_p)
  reference uks
  geom_maxiter 50
  print 3
}

optimize('b3lyp')
scf_e, wfn=frequencies('b3lyp', return_wfn=True, dertype=1)
wfn.hessian().print_out()
--------------------------------------------------------------------------

    Molecular point group: c2v
  Charge       = 0
  Multiplicity = 2
  @UKS Final Energy:   -39.83232072944332
    Total Energy =                        -39.8323207294433246
    Molecular point group: c2v
  @UKS Final Energy:   -39.84287899215119
    Total Energy =                        -39.8428789921511921
  @UKS Final Energy:   -39.84287970734235
    Total Energy =                        -39.8428797073423482
  **** Optimization is complete! (in 3 steps) ****
    Final optimized geometry and variables:
  @UKS Final Energy:   -39.84287970734240
    Total Energy =                        -39.8428797073423908
  @UKS Final Energy:   -39.84287970734238
    Total Energy =                        -39.8428797073423837
  @UKS Final Energy:   -39.84287646419145
    Total Energy =                        -39.8428764641914483
  @UKS Final Energy:   -39.84287650151449
    Total Energy =                        -39.8428765015144819
  @UKS Final Energy:   -39.84287529250891
    Total Energy =                        -39.8428752925089213
  @UKS Final Energy:   -39.84287656770229
    Total Energy =                        -39.8428765677022909
  @UKS Final Energy:   -39.84287657097731
    Total Energy =                        -39.8428765709773032
  @UKS Final Energy:   -39.84287528953227
    Total Energy =                        -39.8428752895322589
  @UKS Final Energy:   -39.84287960576653
    Total Energy =                        -39.8428796057665267
  @UKS Final Energy:   -39.84287648312102
    Total Energy =                        -39.8428764831210174
    Molecular point group: cs
  Charge       = 0
  Multiplicity = 2

    Orbital Energies [Eh]
    ---------------------

    Alpha Occupied:

       1Ap   -10.191939     2Ap    -0.680780     3Ap    -0.415259
       4Ap    -0.415240     1App   -0.224589

    Alpha Virtual:

       5Ap     0.115029     6Ap     0.181916     7Ap     0.182186
       2App    0.536633     8Ap     0.538847     9Ap     0.539873
      10Ap     0.681197    11Ap     0.889514    12Ap     0.890140
      13Ap     0.943930     3App    1.435906     4App    1.436181
      14Ap     1.912537    15Ap     1.915862    16Ap     1.963338
      17Ap     2.006823     5App    2.278892     6App    2.560431
       7App    2.560947    18Ap     2.715256    19Ap     2.718176
      20Ap     3.248608    21Ap     3.455800    22Ap     3.459483
      23Ap     4.272343

    Beta Occupied:

       1Ap   -10.177937     2Ap    -0.639780     3Ap    -0.405243
       4Ap    -0.405196

    Beta Virtual:

       1App   -0.049682     5Ap     0.131154     6Ap     0.187360
       7Ap     0.187623     8Ap     0.546555     9Ap     0.547600
       2App    0.613958    10Ap     0.706563    11Ap     0.892983
      12Ap     0.893644    13Ap     0.971896     3App    1.482472
       4App    1.482767    14Ap     1.916055    15Ap     1.919360
      16Ap     2.001698    17Ap     2.045036     5App    2.285361
       6App    2.590002     7App    2.590552    18Ap     2.715517
      19Ap     2.718441    20Ap     3.254956    21Ap     3.463498
      22Ap     3.467211    23Ap     4.309053

    Final Occupation by Irrep:
             Ap   App
    DOCC [     4,    0 ]
    SOCC [     0,    1 ]

  @UKS Final Energy:   -39.84287714872134

   => Energetics <=

    Nuclear Repulsion Energy =              9.6497048217436419
    One-Electron Energy =                 -71.6433999099400864
    Two-Electron Energy =                  27.4087724392067535
    DFT Exchange-Correlation Energy =      -5.2579544997316559
    Empirical Dispersion Energy =           0.0000000000000000
    VV10 Nonlocal Energy =                  0.0000000000000000
    Total Energy =                        -39.8428771487213425

  UHF NO Occupations:
  HONO-2 :    3 Ap 1.9997337
  HONO-1 :    4 Ap 1.9987174
  HONO-0 :    1App 1.0000000
  LUNO+0 :    5 Ap 0.0012826
  LUNO+1 :    6 Ap 0.0002663
  LUNO+2 :    7 Ap 0.0002653
  LUNO+3 :    8 Ap 0.0000004

Computation Completed

Properties will be evaluated at   0.000000,   0.000000,   0.000000 [a0]

Properties computed using the SCF density matrix

  Nuclear Dipole Moment: [e a0]
     X:     0.0000      Y:     0.0000      Z:     0.0000

  Electronic Dipole Moment: [e a0]
     X:     0.0000      Y:    -0.0005      Z:    -0.0000

  Dipole Moment: [e a0]
     X:     0.0000      Y:    -0.0005      Z:     0.0000     Total:     0.0005

  Dipole Moment: [D]
     X:     0.0000      Y:    -0.0012      Z:     0.0000     Total:     0.0012

*** tstop() called on FACC02D75Y4MD6T.tld at Mon Sep 21 09:31:50 2020
Module time:
	user time   =       2.02 seconds =       0.03 minutes
	system time =       0.05 seconds =       0.00 minutes
	total time  =          2 seconds =       0.03 minutes
Total time:
	user time   =      32.99 seconds =       0.55 minutes
	system time =       1.02 seconds =       0.02 minutes
	total time  =         34 seconds =       0.57 minutes

*** tstart() called on FACC02D75Y4MD6T.tld
*** at Mon Sep 21 09:31:50 2020

         ------------------------------------------------------------
                                   SCF GRAD
                          Rob Parrish, Justin Turney,
                       Andy Simmonett, and Alex Sokolov
         ------------------------------------------------------------

  ==> Geometry <==

    Molecular point group: cs
    Full point group: Cs

    Geometry (in Angstrom), charge = 0, multiplicity = 2:

       Center              X                  Y                   Z               Mass
    ------------   -----------------  -----------------  -----------------  -----------------
         C            0.000000000000     0.000000000000    -0.000000316803    12.000000000000
         H            0.000000000000    -0.001521660640    -1.082079504827     1.007825032230
         H            0.000000000000     0.937869688683     0.542359436048     1.007825032230
         H            0.000000000000    -0.936348028043     0.539723840904     1.007825032230

           C
              BASIS           6-31G(D_P)           a2828f8bd65c52d276d3a5c7992328305af36e8a
              DF_BASIS_SCF    (6-31G(D_P) AUX)     130a2f96e8083cf241f9163199d111676f18ec06
           H
              BASIS           6-31G(D_P)           902186d0f3205710946c2c15d2c68458d6f6cc2a
              DF_BASIS_SCF    (6-31G(D_P) AUX)     1164366b470d7a66fddaf681ef9d1c28421b3e4a
           H
              BASIS           6-31G(D_P)           902186d0f3205710946c2c15d2c68458d6f6cc2a
              DF_BASIS_SCF    (6-31G(D_P) AUX)     1164366b470d7a66fddaf681ef9d1c28421b3e4a
           H
              BASIS           6-31G(D_P)           902186d0f3205710946c2c15d2c68458d6f6cc2a
              DF_BASIS_SCF    (6-31G(D_P) AUX)     1164366b470d7a66fddaf681ef9d1c28421b3e4a

  Nuclear repulsion =    9.649704821743642

  ==> Basis Set <==

  -AO BASIS SET INFORMATION:
    Name                   = 6-31G(D_P)
    Blend                  = 6-31G(D_P)
    Total number of shells = 15
    Number of primitives   = 30
    Number of AO           = 30
    Number of SO           = 30
    Maximum AM             = 2
    Spherical Harmonics    = FALSE

  -Contraction Scheme:
    Atom   Type   All Primitives // Shells:
   ------ ------ --------------------------
       1     C     10s 4p 1d // 3s 2p 1d
       2     H     4s 1p // 2s 1p
       3     H     4s 1p // 2s 1p
       4     H     4s 1p // 2s 1p

  ==> AO Basis Functions <==

    [ 6-31G(D_P) ]
    cartesian
    ****
    C   1
    S   6 1.00
                      3047.52490000           0.00183470
                       457.36951000           0.01403730
                       103.94869000           0.06884260
                        29.21015500           0.23218440
                         9.28666300           0.46794130
                         3.16392700           0.36231200
    S   3 1.00
                         7.86827240          -0.11933240
                         1.88128850          -0.16085420
                         0.54424930           1.14345640
    P   3 1.00
                         7.86827240           0.06899910
                         1.88128850           0.31642400
                         0.54424930           0.74430830
    S   1 1.00
                         0.16871440           1.00000000
    P   1 1.00
                         0.16871440           1.00000000
    D   1 1.00
                         0.80000000           1.00000000
    ****
    H   2
    S   3 1.00
                        18.73113700           0.03349460
                         2.82539370           0.23472695
                         0.64012170           0.81375733
    S   1 1.00
                         0.16127780           1.00000000
    P   1 1.00
                         1.10000000           1.00000000
    ****
    H   3
    S   3 1.00
                        18.73113700           0.03349460
                         2.82539370           0.23472695
                         0.64012170           0.81375733
    S   1 1.00
                         0.16127780           1.00000000
    P   1 1.00
                         1.10000000           1.00000000
    ****
    H   4
    S   3 1.00
                        18.73113700           0.03349460
                         2.82539370           0.23472695
                         0.64012170           0.81375733
    S   1 1.00
                         0.16127780           1.00000000
    P   1 1.00
                         1.10000000           1.00000000
    ****

  ==> DirectJKGrad: Integral-Direct SCF Gradients <==

    Gradient:                    1
    J tasked:                  Yes
    K tasked:                  Yes
    wK tasked:                  No
    Integrals threads:           1
    Schwarz Cutoff:          0E+00

  ==> DFT Potential <==

   => Composite Functional: B3LYP <=

    B3LYP Hyb-GGA Exchange-Correlation Functional

    P. J. Stephens, F. J. Devlin, C. F. Chabalowski, and M. J. Frisch, J. Phys. Chem. 98, 11623 (1994)

    Deriv               =              1
    GGA                 =           TRUE
    Meta                =          FALSE

    Exchange Hybrid     =           TRUE
    MP2 Hybrid          =          FALSE

   => Exchange Functionals <=

    0.0800   Slater exchange
    0.7200         Becke 88

   => Exact (HF) Exchange <=

    0.2000               HF

   => Correlation Functionals <=

    0.1900   Vosko, Wilk & Nusair (VWN5_RPA)
    0.8100   Lee, Yang & Parr

   => XC_HYB_GGA_XC_B3LYP Functional <=

    B3LYP
    P. J. Stephens, F. J. Devlin, C. F. Chabalowski, and M. J. Frisch, J. Phys. Chem. 98, 11623 (1994)
    GGA   =           TRUE
    Meta  =          FALSE
    LRC   =          FALSE
    Alpha =   1.000000E+00
    Omega =   0.000000E+00

    > Parameters <

   => Molecular Quadrature <=

    Radial Scheme          =       TREUTLER
    Pruning Scheme         =           FLAT
    Nuclear Scheme         =       TREUTLER

    BS radius alpha        =              1
    Pruning alpha          =              1
    Radial Points          =             75
    Spherical Points       =            302
    Total Points           =          87800
    Total Blocks           =            722
    Max Points             =            256
    Max Functions          =             30

  -Nuclear Gradient:
     Atom            X                  Y                   Z
    ------   -----------------  -----------------  -----------------
       1        0.000000000000    -0.009080413477     0.000002027108
       2        0.000000000000     0.001920784623     1.573019392442
       3        0.000000000000    -1.358698845140    -0.785552866096
       4        0.000000000000     1.365858473994    -0.787468553454

  -Core Hamiltonian Gradient:
     Atom            X                  Y                   Z
    ------   -----------------  -----------------  -----------------
       1        0.000000000000     0.016535787985     0.000006953755
       2        0.000000000000    -0.007656211486    -3.806241192587
       3        0.000000000000     3.291858170209     1.904974109906
       4        0.000000000000    -3.300737746707     1.901260128926

  -Overlap Gradient:
     Atom            X                  Y                   Z
    ------   -----------------  -----------------  -----------------
       1       -0.000000000000    -0.000693750713    -0.000000776074
       2       -0.000000000000     0.000408323236     0.156348296973
       3       -0.000000000000    -0.135258294695    -0.078327109285
       4       -0.000000000000     0.135543722172    -0.078020411614

  -Coulomb Gradient:
     Atom            X                  Y                   Z
    ------   -----------------  -----------------  -----------------
       1        0.000000000000    -0.009290237173    -0.000007649306
       2        0.000000000000     0.005806141795     2.347006002085
       3        0.000000000000    -2.030819640729    -1.175845573286
       4        0.000000000000     2.034303736107    -1.171152779493

  -Exchange Gradient:
     Atom            X                  Y                   Z
    ------   -----------------  -----------------  -----------------
       1       -0.000000000000     0.000290660746     0.000000269483
       2       -0.000000000000    -0.000186870047    -0.066939048590
       3       -0.000000000000     0.057918871853     0.033547317019
       4       -0.000000000000    -0.058022662553     0.033391462088

  -XC Gradient:
     Atom            X                  Y                   Z
    ------   -----------------  -----------------  -----------------
       1        0.000000000000     0.000925475286    -0.000005678452
       2       -0.000000000000    -0.000531509629    -0.203299888808
       3       -0.000000000000     0.175864877198     0.101842291532
       4       -0.000000000000    -0.176258810835     0.101456014819

  -Total Gradient:
     Atom            X                  Y                   Z
    ------   -----------------  -----------------  -----------------
       1        0.000000000000    -0.001312477347    -0.000004853485
       2        0.000000000000    -0.000239341507    -0.000106438485
       3        0.000000000000     0.000865138695     0.000638169789
       4        0.000000000000     0.000686712178    -0.000534138728

*** tstop() called on FACC02D75Y4MD6T.tld at Mon Sep 21 09:31:50 2020
Module time:
	user time   =       0.35 seconds =       0.01 minutes
	system time =       0.01 seconds =       0.00 minutes
	total time  =          0 seconds =       0.00 minutes
Total time:
	user time   =      33.34 seconds =       0.56 minutes
	system time =       1.03 seconds =       0.02 minutes
	total time  =         34 seconds =       0.57 minutes

         ----------------------------------------------------------
                                   FINDIF
                     R. A. King and Jonathon Misiewicz
         ---------------------------------------------------------

  Computing second-derivative from gradients using projected,
  symmetry-adapted, cartesian coordinates.

  10 gradients passed in, including the reference geometry.
  Generating complete list of displacements from unique ones.

    The atom map:
     1 :    1   1   1   1
     2 :    2   2   2   2
     3 :    3   4   4   3
     4 :    4   3   3   4

    Symmetric gradients

[[ 3.9443045261e-31  0.0000000000e+00 -2.0098521781e-03]
 [-2.4651903288e-32  2.4651903288e-32  1.0581581864e-03]
 [-1.5769400875e-20  5.1506772031e-04  4.7753280086e-04]
 [ 1.5769400876e-20 -5.1506772031e-04  4.7753280086e-04]]

[[ 0.0000000000e+00 -3.9443045261e-31  1.9989679160e-03]
 [-4.9303806576e-32  4.9303806576e-32 -1.2571749800e-03]
 [ 1.0188534643e-20 -3.3278279583e-04 -3.6915959499e-04]
 [-1.0188534643e-20  3.3278279583e-04 -3.6915959499e-04]]

[[ 0.0000000000e+00 -1.0477058897e-31  9.1985453518e-04]
 [ 0.0000000000e+00  1.6948183511e-32 -1.6441070944e-03]
 [-1.0266854898e-20  3.3534092948e-04  3.6381735720e-04]
 [ 1.0266854898e-20 -3.3534092948e-04  3.6381735720e-04]]

[[ 0.0000000000e+00 -3.9443045261e-31 -9.3633826230e-04]
 [-2.4651903288e-32  2.4651903288e-32  1.4515916433e-03]
 [ 4.6466632169e-21 -1.5177153838e-04 -2.5589439823e-04]
 [-4.6466632169e-21  1.5177153838e-04 -2.5589439823e-04]]

[[-9.8607613153e-31  0.0000000000e+00  9.3509764544e-04]
 [ 1.2325951644e-32  0.0000000000e+00 -1.3387724630e-04]
 [ 3.0144223857e-20 -9.8458506984e-04 -3.9889522221e-04]
 [-3.0144223857e-20  9.8458506984e-04 -3.9889522221e-04]]

[[ 0.0000000000e+00  1.5777218104e-30 -9.2112396012e-04]
 [-6.1629758220e-32  0.0000000000e+00 -7.7645861296e-05]
 [-3.5529632990e-20  1.1604858810e-03  5.0109321623e-04]
 [ 3.5529632990e-20 -1.1604858810e-03  5.0109321623e-04]]

  Vibration                       7                   8                   9
  Freq [cm^-1]                 463.5944           1420.7839           1420.8382
  Irrep                           B1                  B2                  A1
  Reduced mass [u]              1.2356              1.1021              1.1021
  Force const [mDyne/A]         0.1565              1.3108              1.3109

  Vibration                       10                  11                  12
  Freq [cm^-1]                3130.2265           3311.9676           3311.9996
  Irrep                           A1                  B2                  A1
  Reduced mass [u]              1.0078              1.1183              1.1183
  Force const [mDyne/A]         5.8182              7.2276              7.2277

  ==> Thermochemistry Components <==

  Entropy, S
    Electronic S            1.377 [cal/(mol K)]        5.763 [J/(mol K)]       0.00219507 [mEh/K] (multiplicity = 2)
    Translational S        34.068 [cal/(mol K)]      142.539 [J/(mol K)]       0.05429035 [mEh/K] (mol. weight = 15.0235 [u], P = 101325.00 [Pa])
    Rotational S           12.610 [cal/(mol K)]       52.762 [J/(mol K)]       0.02009606 [mEh/K] (symmetry no. = 2)
    Vibrational S           0.789 [cal/(mol K)]        3.300 [J/(mol K)]       0.00125677 [mEh/K]
  Total S                  48.844 [cal/(mol K)]      204.364 [J/(mol K)]       0.07783824 [mEh/K]
  Correction S              0.000 [cal/(mol K)]        0.000 [J/(mol K)]       0.00000000 [mEh/K]

  Constant volume heat capacity, Cv
    Electronic Cv           0.000 [cal/(mol K)]        0.000 [J/(mol K)]       0.00000000 [mEh/K]
    Translational Cv        2.981 [cal/(mol K)]       12.472 [J/(mol K)]       0.00475022 [mEh/K]
    Rotational Cv           2.981 [cal/(mol K)]       12.472 [J/(mol K)]       0.00475022 [mEh/K]
    Vibrational Cv          1.528 [cal/(mol K)]        6.394 [J/(mol K)]       0.00243526 [mEh/K]
  Total Cv                  7.490 [cal/(mol K)]       31.337 [J/(mol K)]       0.01193569 [mEh/K]
  Correction Cv             0.000 [cal/(mol K)]        0.000 [J/(mol K)]       0.00000000 [mEh/K]

  Constant pressure heat capacity, Cp
    Electronic Cp           0.000 [cal/(mol K)]        0.000 [J/(mol K)]       0.00000000 [mEh/K]
    Translational Cp        4.968 [cal/(mol K)]       20.786 [J/(mol K)]       0.00791703 [mEh/K]
    Rotational Cp           2.981 [cal/(mol K)]       12.472 [J/(mol K)]       0.00475022 [mEh/K]
    Vibrational Cp          1.528 [cal/(mol K)]        6.394 [J/(mol K)]       0.00243526 [mEh/K]
  Total Cp                  9.477 [cal/(mol K)]       39.652 [J/(mol K)]       0.01510250 [mEh/K]
  Correction Cp             0.000 [cal/(mol K)]        0.000 [J/(mol K)]       0.00000000 [mEh/K]

  ==> Thermochemistry Energy Analysis <==

  Raw electronic energy, E0
  Total E0, Electronic energy at well bottom at 0 [K]                  -39.84287971 [Eh]

  Zero-point energy, ZPE_vib = Sum_i nu_i / 2
    Electronic ZPE          0.000 [kcal/mol]        0.000 [kJ/mol]       0.00000000 [Eh]
    Translational ZPE       0.000 [kcal/mol]        0.000 [kJ/mol]       0.00000000 [Eh]
    Rotational ZPE          0.000 [kcal/mol]        0.000 [kJ/mol]       0.00000000 [Eh]
    Vibrational ZPE        18.669 [kcal/mol]       78.113 [kJ/mol]       0.02975153 [Eh]        6529.705 [cm^-1]
  Correction ZPE           18.669 [kcal/mol]       78.113 [kJ/mol]       0.02975153 [Eh]        6529.705 [cm^-1]
  Total ZPE, Electronic energy at 0 [K]                                -39.81312818 [Eh]

  Thermal Energy, E (includes ZPE)
    Electronic E            0.000 [kcal/mol]        0.000 [kJ/mol]       0.00000000 [Eh]
    Translational E         0.889 [kcal/mol]        3.718 [kJ/mol]       0.00141628 [Eh]
    Rotational E            0.889 [kcal/mol]        3.718 [kJ/mol]       0.00141628 [Eh]
    Vibrational E          18.836 [kcal/mol]       78.811 [kJ/mol]       0.03001764 [Eh]
  Correction E             20.614 [kcal/mol]       86.248 [kJ/mol]       0.03285019 [Eh]
  Total E, Electronic energy at  298.15 [K]                            -39.81002951 [Eh]

  Enthalpy, H_trans = E_trans + k_B * T
    Electronic H            0.000 [kcal/mol]        0.000 [kJ/mol]       0.00000000 [Eh]
    Translational H         1.481 [kcal/mol]        6.197 [kJ/mol]       0.00236046 [Eh]
    Rotational H            0.889 [kcal/mol]        3.718 [kJ/mol]       0.00141628 [Eh]
    Vibrational H          18.836 [kcal/mol]       78.811 [kJ/mol]       0.03001764 [Eh]
  Correction H             21.206 [kcal/mol]       88.727 [kJ/mol]       0.03379438 [Eh]
  Total H, Enthalpy at  298.15 [K]                                     -39.80908533 [Eh]

  Gibbs free energy, G = H - T * S
    Electronic G           -0.411 [kcal/mol]       -1.718 [kJ/mol]      -0.00065446 [Eh]
    Translational G        -8.676 [kcal/mol]      -36.301 [kJ/mol]      -0.01382621 [Eh]
    Rotational G           -2.871 [kcal/mol]      -12.013 [kJ/mol]      -0.00457536 [Eh]
    Vibrational G          18.601 [kcal/mol]       77.828 [kJ/mol]       0.02964294 [Eh]
  Correction G              6.643 [kcal/mol]       27.796 [kJ/mol]       0.01058691 [Eh]
  Total G, Free enthalpy at  298.15 [K]                                -39.83229280 [Eh]

*** Psi4 exiting successfully. Buy a developer a beer!
