                               Psi4 1.3.2 release

  ==> Input File <==

--------------------------------------------------------------------------
memory 1024 mb

molecule mol {
0 1
C 0.00000000 0.00000000 0.00000000
C -1.31000000 0.00000000 0.00050000
H -1.85000000 -0.93530000 -0.00050000
H -1.85000000 0.93530000 0.00180000
H 0.54000000 0.93530000 0.00100000
H 0.54000000 -0.93530000 0.00320000

}

set {
  scf_type DIRECT
  basis 6-31G(d_p)
  reference rks
  geom_maxiter 50
  print 3
}

optimize('b3lyp')
scf_e, wfn=frequencies('b3lyp', return_wfn=True, dertype=1)
wfn.hessian().print_out()
--------------------------------------------------------------------------

    Molecular point group: c1
  Charge       = 0
  Multiplicity = 1
  @RKS Final Energy:   -78.59236484054561
    Total Energy =                        -78.5923648405456134
    Molecular point group: c1
  @RKS Final Energy:   -78.59374932913765
    Total Energy =                        -78.5937493291376512
  @RKS Final Energy:   -78.59380249820383
    Total Energy =                        -78.5938024982038286
  @RKS Final Energy:   -78.59380766762035
    Total Energy =                        -78.5938076676203536
  @RKS Final Energy:   -78.59380770329790
    Total Energy =                        -78.5938077032978981
  **** Optimization is complete! (in 5 steps) ****
    Final optimized geometry and variables:
  @RKS Final Energy:   -78.59380770329778
    Total Energy =                        -78.5938077032977844
  @RKS Final Energy:   -78.59380770329778
    Total Energy =                        -78.5938077032977844
  @RKS Final Energy:   -78.59380609659341
    Total Energy =                        -78.5938060965934113
  @RKS Final Energy:   -78.59380611058847
    Total Energy =                        -78.5938061105884742
  @RKS Final Energy:   -78.59380555478968
    Total Energy =                        -78.5938055547896823
  @RKS Final Energy:   -78.59380555476810
    Total Energy =                        -78.5938055547680960
  @RKS Final Energy:   -78.59380718757197
    Total Energy =                        -78.5938071875719686
  @RKS Final Energy:   -78.59380733711563
    Total Energy =                        -78.5938073371156349
  @RKS Final Energy:   -78.59380568492310
    Total Energy =                        -78.5938056849230975
  @RKS Final Energy:   -78.59380568111790
    Total Energy =                        -78.5938056811178996
  @RKS Final Energy:   -78.59380440123002
    Total Energy =                        -78.5938044012300168
  @RKS Final Energy:   -78.59380440117140
    Total Energy =                        -78.5938044011713970
  @RKS Final Energy:   -78.59380713617634
    Total Energy =                        -78.5938071361763377
  @RKS Final Energy:   -78.59380737593204
    Total Energy =                        -78.5938073759320446
  @RKS Final Energy:   -78.59380544017181
    Total Energy =                        -78.5938054401718063
  @RKS Final Energy:   -78.59380546302845
    Total Energy =                        -78.5938054630284455
  @RKS Final Energy:   -78.59380433854204
    Total Energy =                        -78.5938043385420428
  @RKS Final Energy:   -78.59380434924921
    Total Energy =                        -78.5938043492492113
  @RKS Final Energy:   -78.59380716245626
    Total Energy =                        -78.5938071624562582
  @RKS Final Energy:   -78.59380716235478
    Total Energy =                        -78.5938071623547785
  @RKS Final Energy:   -78.59380537594909
    Total Energy =                        -78.5938053759490884
  @RKS Final Energy:   -78.59380540891408
    Total Energy =                        -78.5938054089140792
  @RKS Final Energy:   -78.59380463031384
    Total Energy =                        -78.5938046303138407
  @RKS Final Energy:   -78.59380462223861
    Total Energy =                        -78.5938046222386077
  @RKS Final Energy:   -78.59380408619512
    Total Energy =                        -78.5938040861951208
    Molecular point group: c1
  Charge       = 0
  Multiplicity = 1

    Orbital Energies [Eh]
    ---------------------

    Doubly Occupied:

       1A    -10.184589     2A    -10.183638     3A     -0.755106
       4A     -0.576255     5A     -0.463902     6A     -0.415618
       7A     -0.351730     8A     -0.267461

  @RKS Final Energy:   -78.59380407263676

   => Energetics <=

    Nuclear Repulsion Energy =             33.3461164565962136
    One-Electron Energy =                -170.3218045410496870
    Two-Electron Energy =                  68.3338047130920785
    DFT Exchange-Correlation Energy =      -9.9519207012753590
    Empirical Dispersion Energy =           0.0000000000000000
    VV10 Nonlocal Energy =                  0.0000000000000000
    Total Energy =                        -78.5938040726367575

  Dipole Moment: [D]
     X:    -0.0014      Y:    -0.0000      Z:     0.0006     Total:     0.0015

    Molecular point group: c1

    Geometry (in Angstrom), charge = 0, multiplicity = 1:

       Center              X                  Y                   Z               Mass
    ------------   -----------------  -----------------  -----------------  -----------------
         C            0.665085386931    -0.000000024088     0.000286432444    12.000000000000
         C           -0.665085367454     0.000000027633    -0.000350555731    12.000000000000
         H           -1.238026789473    -0.923339921514    -0.000426304508     1.007825032230
         H           -1.238026790020     0.923339978517    -0.000377078876     1.007825032230
         H            1.238026677804     0.925203522610     0.000808239750     1.007825032230
         H            1.238026669778    -0.925203621823     0.000758648633     1.007825032230

  -Total Gradient:
     Atom            X                  Y                   Z
    ------   -----------------  -----------------  -----------------
       1       -0.000872826932     0.000000004121    -0.000026940629
       2        0.000012148015     0.000000007386    -0.000026313150
       3        0.000000891041    -0.000000449752     0.000013139424
       4        0.000000887517     0.000000447712     0.000013128506
       5        0.000429492917     0.001026458842     0.000013504494
       6        0.000429501660    -0.001026468309     0.000013438563

  Vibration                       7                   8                   9
  Freq [cm^-1]                 831.2954            961.1603            976.7838
  Irrep                           A                   A                   A
  Reduced mass [u]              1.0427              1.5201              1.1607
  Force const [mDyne/A]         0.4245              0.8274              0.6525

  Vibration                       10                  11                  12
  Freq [cm^-1]                1069.2955           1241.3229           1388.3789
  Irrep                           A                   A                   A
  Reduced mass [u]              1.0078              1.5260              1.2140
  Force const [mDyne/A]         0.6789              1.3854              1.3788

  Vibration                       13                  14                  15
  Freq [cm^-1]                1483.0604           1715.1324           3144.8482
  Irrep                           A                   A                   A
  Reduced mass [u]              1.1120              3.1883              1.0477
  Force const [mDyne/A]         1.4410              5.5258              6.1050

  Vibration                       16                  17                  18
  Freq [cm^-1]                3160.6048           3220.5713           3246.4897
  Irrep                           A                   A                   A
  Reduced mass [u]              1.0747              1.1146              1.1177
  Force const [mDyne/A]         6.3255              6.8113              6.9405

  ==> Thermochemistry Components <==

  Entropy, S
    Electronic S            0.000 [cal/(mol K)]        0.000 [J/(mol K)]       0.00000000 [mEh/K] (multiplicity = 1)
    Translational S        35.927 [cal/(mol K)]      150.318 [J/(mol K)]       0.05725309 [mEh/K] (mol. weight = 28.0313 [u], P = 101325.00 [Pa])
    Rotational S           18.615 [cal/(mol K)]       77.884 [J/(mol K)]       0.02966453 [mEh/K] (symmetry no. = 1)
    Vibrational S           0.537 [cal/(mol K)]        2.247 [J/(mol K)]       0.00085592 [mEh/K]
  Total S                  55.079 [cal/(mol K)]      230.449 [J/(mol K)]       0.08777354 [mEh/K]
  Correction S              0.000 [cal/(mol K)]        0.000 [J/(mol K)]       0.00000000 [mEh/K]

  Constant volume heat capacity, Cv
    Electronic Cv           0.000 [cal/(mol K)]        0.000 [J/(mol K)]       0.00000000 [mEh/K]
    Translational Cv        2.981 [cal/(mol K)]       12.472 [J/(mol K)]       0.00475022 [mEh/K]
    Rotational Cv           2.981 [cal/(mol K)]       12.472 [J/(mol K)]       0.00475022 [mEh/K]
    Vibrational Cv          2.137 [cal/(mol K)]        8.941 [J/(mol K)]       0.00340533 [mEh/K]
  Total Cv                  8.098 [cal/(mol K)]       33.884 [J/(mol K)]       0.01290576 [mEh/K]
  Correction Cv             0.000 [cal/(mol K)]        0.000 [J/(mol K)]       0.00000000 [mEh/K]

  Constant pressure heat capacity, Cp
    Electronic Cp           0.000 [cal/(mol K)]        0.000 [J/(mol K)]       0.00000000 [mEh/K]
    Translational Cp        4.968 [cal/(mol K)]       20.786 [J/(mol K)]       0.00791703 [mEh/K]
    Rotational Cp           2.981 [cal/(mol K)]       12.472 [J/(mol K)]       0.00475022 [mEh/K]
    Vibrational Cp          2.137 [cal/(mol K)]        8.941 [J/(mol K)]       0.00340533 [mEh/K]
  Total Cp                 10.086 [cal/(mol K)]       42.199 [J/(mol K)]       0.01607257 [mEh/K]
  Correction Cp             0.000 [cal/(mol K)]        0.000 [J/(mol K)]       0.00000000 [mEh/K]

  ==> Thermochemistry Energy Analysis <==

  Raw electronic energy, E0
  Total E0, Electronic energy at well bottom at 0 [K]                  -78.59380770 [Eh]

  Zero-point energy, ZPE_vib = Sum_i nu_i / 2
    Electronic ZPE          0.000 [kcal/mol]        0.000 [kJ/mol]       0.00000000 [Eh]
    Translational ZPE       0.000 [kcal/mol]        0.000 [kJ/mol]       0.00000000 [Eh]
    Rotational ZPE          0.000 [kcal/mol]        0.000 [kJ/mol]       0.00000000 [Eh]
    Vibrational ZPE        32.078 [kcal/mol]      134.215 [kJ/mol]       0.05111967 [Eh]       11219.472 [cm^-1]
  Correction ZPE           32.078 [kcal/mol]      134.215 [kJ/mol]       0.05111967 [Eh]       11219.472 [cm^-1]
  Total ZPE, Electronic energy at 0 [K]                                -78.54268803 [Eh]

  Thermal Energy, E (includes ZPE)
    Electronic E            0.000 [kcal/mol]        0.000 [kJ/mol]       0.00000000 [Eh]
    Translational E         0.889 [kcal/mol]        3.718 [kJ/mol]       0.00141628 [Eh]
    Rotational E            0.889 [kcal/mol]        3.718 [kJ/mol]       0.00141628 [Eh]
    Vibrational E          32.210 [kcal/mol]      134.767 [kJ/mol]       0.05132998 [Eh]
  Correction E             33.988 [kcal/mol]      142.204 [kJ/mol]       0.05416254 [Eh]
  Total E, Electronic energy at  298.15 [K]                            -78.53964517 [Eh]

  Enthalpy, H_trans = E_trans + k_B * T
    Electronic H            0.000 [kcal/mol]        0.000 [kJ/mol]       0.00000000 [Eh]
    Translational H         1.481 [kcal/mol]        6.197 [kJ/mol]       0.00236046 [Eh]
    Rotational H            0.889 [kcal/mol]        3.718 [kJ/mol]       0.00141628 [Eh]
    Vibrational H          32.210 [kcal/mol]      134.767 [kJ/mol]       0.05132998 [Eh]
  Correction H             34.580 [kcal/mol]      144.683 [kJ/mol]       0.05510672 [Eh]
  Total H, Enthalpy at  298.15 [K]                                     -78.53870098 [Eh]

  Gibbs free energy, G = H - T * S
    Electronic G            0.000 [kcal/mol]        0.000 [kJ/mol]       0.00000000 [Eh]
    Translational G        -9.230 [kcal/mol]      -38.620 [kJ/mol]      -0.01470955 [Eh]
    Rotational G           -4.661 [kcal/mol]      -19.503 [kJ/mol]      -0.00742820 [Eh]
    Vibrational G          32.050 [kcal/mol]      134.097 [kJ/mol]       0.05107479 [Eh]
  Correction G             18.158 [kcal/mol]       75.974 [kJ/mol]       0.02893704 [Eh]
  Total G, Free enthalpy at  298.15 [K]                                -78.56487066 [Eh]

*** Psi4 exiting successfully. Buy a developer a beer!
